<?xml version="1.0" encoding="UTF-8"?>

<!-- generated on 2025-09-13 21:24:48 by Eclipse SUMO GUI Version c915cd253
<sumoConfiguration xmlns:xsi="http://www.w3.org/2001/XMLSchema-instance" xsi:noNamespaceSchemaLocation="http://sumo.dlr.de/xsd/sumoConfiguration.xsd">

    <input>
        <net-file value="/home/dahou/Desktop/StageLIDSI/episodes_start/H2ST8C copy/osm.net.xml"/>
        <route-files value="/home/dahou/Desktop/StageLIDSI/episodes_start/H2ST8C copy/osm_pt.rou.xml,/home/dahou/Desktop/StageLIDSI/episodes_start/H2ST8C copy/osm_activitygen.merged.rou.xml"/>
        <additional-files value="/home/dahou/Desktop/StageLIDSI/episodes_start/H2ST8C copy/osm_polygons.add.xml,/home/dahou/Desktop/StageLIDSI/episodes_start/H2ST8C copy/basic.vType.xml,/home/dahou/Desktop/StageLIDSI/episodes_start/H2ST8C copy/osm_stops.add.xml,/home/dahou/Desktop/StageLIDSI/episodes_start/H2ST8C copy/osm_complete_parking_areas.add.xml,/home/dahou/Desktop/StageLIDSI/episodes_start/H2ST8C copy/osm_parking_rerouters.add.xml,/home/dahou/Desktop/StageLIDSI/episodes_start/H2ST8C copy/osm_taxi_stands.add.xml,/home/dahou/Desktop/StageLIDSI/episodes_start/H2ST8C copy/osm_taxi_rerouters.add.xml"/>
    </input>

    <output>
        <output-prefix value="output."/>
        <summary-output value="/home/dahou/Desktop/StageLIDSI/episodes_start/H2ST8C copy/summary.xml"/>
        <person-summary-output value="/home/dahou/Desktop/StageLIDSI/episodes_start/H2ST8C copy/person.summary.xml"/>
        <tripinfo-output value="/home/dahou/Desktop/StageLIDSI/episodes_start/H2ST8C copy/tripinfo.xml"/>
        <tripinfo-output.write-unfinished value="false"/>
        <statistic-output value="/home/dahou/Desktop/StageLIDSI/episodes_start/H2ST8C copy/statistics.xml"/>
    </output>

    <time>
        <begin value="0.0"/>
        <end value="86400.0"/>
        <step-length value="1"/>
    </time>

    <processing>
        <lateral-resolution value="0.8"/>
        <ignore-junction-blocker value="60"/>
        <ignore-route-errors value="true"/>
        <collision.action value="teleport"/>
        <time-to-teleport value="300"/>
        <max-depart-delay value="900"/>
        <time-to-impatience value="120"/>
        <parking.maneuver value="true"/>
        <pedestrian.model value="striping"/>
        <pedestrian.striping.stripe-width value="0.55"/>
        <pedestrian.striping.dawdling value="0.2"/>
        <pedestrian.striping.jamtime value="60"/>
        <pedestrian.striping.jamtime.crossing value="10"/>
        <pedestrian.striping.reserve-oncoming value="0.25"/>
        <pedestrian.striping.reserve-oncoming.junctions value="0.34"/>
        <ride.stop-tolerance value="25"/>
    </processing>

    <routing>
        <routing-algorithm value="astar"/>
        <persontrip.walkfactor value="0.75"/>
        <persontrip.transfer.car-walk value="parkingAreas,allJunctions"/>
        <persontrip.transfer.taxi-walk value="parkingAreas,allJunctions"/>
        <persontrip.transfer.walk-taxi value="parkingAreas,allJunctions"/>
        <persontrip.taxi.waiting-time value="300"/>
        <device.rerouting.probability value="1"/>
        <device.rerouting.period value="300"/>
        <device.rerouting.pre-period value="300"/>
        <device.rerouting.bike-speeds value="true"/>
        <person-device.rerouting.probability value="1"/>
        <person-device.rerouting.period value="300"/>
    </routing>

    <report>
        <verbose value="true"/>
        <no-warnings value="false"/>
        <duration-log.disable value="false"/>
        <duration-log.statistics value="true"/>
        <no-step-log value="false"/>
    </report>

    <taxi_device>
        <device.taxi.dispatch-algorithm value="greedy"/>
        <device.taxi.dispatch-algorithm.output value="/home/dahou/Desktop/StageLIDSI/episodes_start/H2ST8C copy/taxi.dispatch.xml"/>
        <device.taxi.dispatch-period value="60"/>
        <device.taxi.idle-algorithm value="stop"/>
        <device.taxi.idle-algorithm.output value="/home/dahou/Desktop/StageLIDSI/episodes_start/H2ST8C copy/taxi.idle.xml"/>
    </taxi_device>

    <random_number>
        <seed value="42"/>
    </random_number>

    <gui_only>
        <gui-settings-file value="/home/dahou/Desktop/StageLIDSI/episodes_start/H2ST8C copy/default-gui.xml"/>
    </gui_only>

</sumoConfiguration>
-->

<tripinfos xmlns:xsi="http://www.w3.org/2001/XMLSchema-instance" xsi:noNamespaceSchemaLocation="http://sumo.dlr.de/xsd/tripinfo_file.xsd">
    <tripinfo id="pt_bus_L19:0.0" depart="14415.00" departLane="-62236#5_1" departPos="12.10" departPosLat="0.00" departSpeed="0.00" departDelay="0.00" arrival="14578.00" arrivalLane="-61863#2_1" arrivalPos="74.65" arrivalPosLat="0.00" arrivalSpeed="9.99" duration="163.00" routeLength="531.77" waitingTime="2.00" waitingCount="1" stopTime="93.00" timeLoss="45.92" rerouteNo="0" devices="tripinfo_pt_bus_L19:0.0 routing_pt_bus_L19:0.0" vType="pt_bus" speedFactor="1.00" vaporized=""/>
    <tripinfo id="pt_tram_T1:0.0" depart="14415.00" departLane="-61613#2_0" departPos="22.10" departPosLat="0.00" departSpeed="0.00" departDelay="0.00" arrival="14648.00" arrivalLane="-61613#10_0" arrivalPos="399.33" arrivalPosLat="0.00" arrivalSpeed="12.00" duration="233.00" routeLength="1188.24" waitingTime="26.00" waitingCount="1" stopTime="89.00" timeLoss="58.39" rerouteNo="0" devices="tripinfo_pt_tram_T1:0.0 routing_pt_tram_T1:0.0" vType="pt_tram" speedFactor="1.00" vaporized=""/>
    <tripinfo id="pt_tram_T1:1.0" depart="14452.00" departLane="-60395#0_0" departPos="22.10" departPosLat="0.00" departSpeed="0.00" departDelay="0.00" arrival="14689.00" arrivalLane="-60395#10_0" arrivalPos="118.10" arrivalPosLat="0.00" arrivalSpeed="13.89" duration="237.00" routeLength="1186.46" waitingTime="50.00" waitingCount="2" stopTime="60.00" timeLoss="90.73" rerouteNo="0" devices="tripinfo_pt_tram_T1:1.0 routing_pt_tram_T1:1.0" vType="pt_tram" speedFactor="1.00" vaporized=""/>
    <tripinfo id="pt_bus_L301:0.0" depart="14532.00" departLane="--61527#3_1" departPos="12.10" departPosLat="0.00" departSpeed="0.00" departDelay="0.00" arrival="14706.00" arrivalLane="-61432#5_1" arrivalPos="3.81" arrivalPosLat="0.00" arrivalSpeed="0.66" duration="174.00" routeLength="610.48" waitingTime="1.00" waitingCount="1" stopTime="94.00" timeLoss="38.30" rerouteNo="0" devices="tripinfo_pt_bus_L301:0.0 routing_pt_bus_L301:0.0" vType="pt_bus" speedFactor="1.00" vaporized=""/>
    <tripinfo id="pt_bus_L301:1.0" depart="14601.00" departLane="-62281#0_1" departPos="12.10" departPosLat="0.00" departSpeed="0.00" departDelay="0.00" arrival="14778.00" arrivalLane="-61723#7_1" arrivalPos="3.36" arrivalPosLat="0.00" arrivalSpeed="1.07" duration="177.00" routeLength="720.91" waitingTime="0.00" waitingCount="0" stopTime="95.00" timeLoss="30.03" rerouteNo="0" devices="tripinfo_pt_bus_L301:1.0 routing_pt_bus_L301:1.0" vType="pt_bus" speedFactor="1.00" vaporized=""/>
    <tripinfo id="pt_bus_L84:0.0" depart="14458.00" departLane="-61672_1" departPos="12.10" departPosLat="0.00" departSpeed="0.00" departDelay="0.00" arrival="14803.00" arrivalLane="-61432#5_1" arrivalPos="3.81" arrivalPosLat="0.00" arrivalSpeed="0.92" duration="345.00" routeLength="2771.80" waitingTime="1.00" waitingCount="1" stopTime="102.00" timeLoss="83.47" rerouteNo="0" devices="tripinfo_pt_bus_L84:0.0 routing_pt_bus_L84:0.0" vType="pt_bus" speedFactor="1.00" vaporized=""/>
    <tripinfo id="pt_bus_BW2:0.0" depart="14519.00" departLane="-62319#6_0" departPos="12.10" departPosLat="0.00" departSpeed="0.00" departDelay="0.00" arrival="14881.00" arrivalLane="-62319#28_0" arrivalPos="219.55" arrivalPosLat="0.00" arrivalSpeed="13.71" duration="362.00" routeLength="2514.94" waitingTime="22.00" waitingCount="3" stopTime="119.00" timeLoss="152.08" rerouteNo="0" devices="tripinfo_pt_bus_BW2:0.0 routing_pt_bus_BW2:0.0" vType="pt_bus" speedFactor="1.00" vaporized=""/>
    <tripinfo id="pt_bus_L50:0.0" depart="14493.00" departLane="-63194#2_1" departPos="12.10" departPosLat="0.00" departSpeed="0.00" departDelay="0.00" arrival="14907.00" arrivalLane="-60854_1" arrivalPos="161.18" arrivalPosLat="0.00" arrivalSpeed="7.95" duration="414.00" routeLength="2778.20" waitingTime="2.00" waitingCount="2" stopTime="180.00" timeLoss="106.86" rerouteNo="0" devices="tripinfo_pt_bus_L50:0.0 routing_pt_bus_L50:0.0" vType="pt_bus" speedFactor="1.00" vaporized=""/>
    <tripinfo id="pt_bus_L19:1.0" depart="14762.00" departLane="--61863#2_1" departPos="12.10" departPosLat="0.00" departSpeed="0.00" departDelay="0.00" arrival="14922.00" arrivalLane="--62236#5_1" arrivalPos="38.74" arrivalPosLat="0.00" arrivalSpeed="4.33" duration="160.00" routeLength="531.77" waitingTime="1.00" waitingCount="1" stopTime="91.00" timeLoss="45.03" rerouteNo="0" devices="tripinfo_pt_bus_L19:1.0 routing_pt_bus_L19:1.0" vType="pt_bus" speedFactor="1.00" vaporized=""/>
    <tripinfo id="pt_bus_L50:1.0" depart="14533.00" departLane="-61672_1" departPos="12.10" departPosLat="0.00" departSpeed="0.00" departDelay="0.00" arrival="15036.00" arrivalLane="--63194#2_1" arrivalPos="79.27" arrivalPosLat="0.00" arrivalSpeed="1.55" duration="503.00" routeLength="2786.06" waitingTime="24.00" waitingCount="3" stopTime="206.00" timeLoss="168.87" rerouteNo="1" devices="tripinfo_pt_bus_L50:1.0 routing_pt_bus_L50:1.0" vType="pt_bus" speedFactor="1.00" vaporized=""/>
    <tripinfo id="pt_bus_72:0.0" depart="14604.00" departLane="--62236#10_1" departPos="4.11" departPosLat="0.00" departSpeed="0.00" departDelay="0.00" arrival="15036.00" arrivalLane="-62281#0_1" arrivalPos="30.57" arrivalPosLat="0.00" arrivalSpeed="1.07" duration="432.00" routeLength="2183.41" waitingTime="2.00" waitingCount="2" stopTime="220.00" timeLoss="75.70" rerouteNo="1" devices="tripinfo_pt_bus_72:0.0 routing_pt_bus_72:0.0" vType="pt_bus" speedFactor="1.00" vaporized=""/>
    <tripinfo id="pt_bus_BW2:1.0" depart="14703.00" departLane="-62697#3_0" departPos="12.10" departPosLat="0.00" departSpeed="0.00" departDelay="0.00" arrival="15057.00" arrivalLane="-62697#25_0" arrivalPos="277.82" arrivalPosLat="0.00" arrivalSpeed="8.81" duration="354.00" routeLength="2504.02" waitingTime="1.00" waitingCount="1" stopTime="147.00" timeLoss="116.71" rerouteNo="0" devices="tripinfo_pt_bus_BW2:1.0 routing_pt_bus_BW2:1.0" vType="pt_bus" speedFactor="1.00" vaporized=""/>
    <tripinfo id="pt_bus_L63:0.0" depart="14806.00" departLane="-62281#0_1" departPos="12.10" departPosLat="0.00" departSpeed="0.00" departDelay="0.00" arrival="15135.00" arrivalLane="-59737_1" arrivalPos="121.55" arrivalPosLat="0.00" arrivalSpeed="9.10" duration="329.00" routeLength="1547.43" waitingTime="1.00" waitingCount="1" stopTime="151.00" timeLoss="80.88" rerouteNo="0" devices="tripinfo_pt_bus_L63:0.0 routing_pt_bus_L63:0.0" vType="pt_bus" speedFactor="1.00" vaporized=""/>
    <tripinfo id="pt_bus_L19:0.1" depart="15015.00" departLane="-62236#5_1" departPos="12.10" departPosLat="0.00" departSpeed="0.00" departDelay="0.00" arrival="15178.00" arrivalLane="-61863#2_1" arrivalPos="74.65" arrivalPosLat="0.00" arrivalSpeed="10.15" duration="163.00" routeLength="531.77" waitingTime="2.00" waitingCount="2" stopTime="94.00" timeLoss="44.94" rerouteNo="0" devices="tripinfo_pt_bus_L19:0.1 routing_pt_bus_L19:0.1" vType="pt_bus" speedFactor="1.00" vaporized=""/>
    <tripinfo id="pt_bus_L13:0.0" depart="14565.00" departLane="-62142#3_1" departPos="12.10" departPosLat="0.00" departSpeed="0.00" departDelay="0.00" arrival="15189.00" arrivalLane="-62714#0_1" arrivalPos="27.16" arrivalPosLat="0.00" arrivalSpeed="4.38" duration="624.00" routeLength="2993.12" waitingTime="115.00" waitingCount="7" stopTime="215.00" timeLoss="276.43" rerouteNo="0" devices="tripinfo_pt_bus_L13:0.0 routing_pt_bus_L13:0.0" vType="pt_bus" speedFactor="1.00" vaporized=""/>
    <tripinfo id="pt_bus_L143:0.0" depart="14653.00" departLane="-60854_1" departPos="12.10" departPosLat="0.00" departSpeed="0.00" departDelay="0.00" arrival="15208.00" arrivalLane="--63194#2_1" arrivalPos="79.27" arrivalPosLat="0.00" arrivalSpeed="1.86" duration="555.00" routeLength="3606.15" waitingTime="12.00" waitingCount="2" stopTime="210.00" timeLoss="173.54" rerouteNo="0" devices="tripinfo_pt_bus_L143:0.0 routing_pt_bus_L143:0.0" vType="pt_bus" speedFactor="1.00" vaporized=""/>
    <tripinfo id="pt_bus_L63:1.0" depart="14908.00" departLane="--61863#2_1" departPos="12.10" departPosLat="0.00" departSpeed="0.00" departDelay="0.00" arrival="15218.00" arrivalLane="-62281#0_1" arrivalPos="30.57" arrivalPosLat="0.00" arrivalSpeed="5.64" duration="310.00" routeLength="1367.86" waitingTime="1.00" waitingCount="1" stopTime="149.00" timeLoss="85.39" rerouteNo="0" devices="tripinfo_pt_bus_L63:1.0 routing_pt_bus_L63:1.0" vType="pt_bus" speedFactor="1.00" vaporized=""/>
    <tripinfo id="pt_tram_T1:0.1" depart="15015.00" departLane="-61613#2_0" departPos="22.10" departPosLat="0.00" departSpeed="0.00" departDelay="0.00" arrival="15248.00" arrivalLane="-61613#10_0" arrivalPos="399.33" arrivalPosLat="0.00" arrivalSpeed="12.00" duration="233.00" routeLength="1188.24" waitingTime="26.00" waitingCount="2" stopTime="80.00" timeLoss="67.39" rerouteNo="0" devices="tripinfo_pt_tram_T1:0.1 routing_pt_tram_T1:0.1" vType="pt_tram" speedFactor="1.00" vaporized=""/>
    <tripinfo id="pt_tram_T1:1.1" depart="15052.00" departLane="-60395#0_0" departPos="22.10" departPosLat="0.00" departSpeed="0.00" departDelay="0.00" arrival="15289.00" arrivalLane="-60395#10_0" arrivalPos="118.10" arrivalPosLat="0.00" arrivalSpeed="13.89" duration="237.00" routeLength="1186.46" waitingTime="42.00" waitingCount="2" stopTime="68.00" timeLoss="82.73" rerouteNo="0" devices="tripinfo_pt_tram_T1:1.1 routing_pt_tram_T1:1.1" vType="pt_tram" speedFactor="1.00" vaporized=""/>
    <tripinfo id="pt_bus_L109:0.0" depart="14455.00" departLane="-59772_1" departPos="12.10" departPosLat="0.00" departSpeed="0.00" departDelay="0.00" arrival="15306.00" arrivalLane="--60350_1" arrivalPos="78.55" arrivalPosLat="0.00" arrivalSpeed="2.57" duration="851.00" routeLength="4665.46" waitingTime="4.00" waitingCount="3" stopTime="424.00" timeLoss="230.74" rerouteNo="0" devices="tripinfo_pt_bus_L109:0.0 routing_pt_bus_L109:0.0" vType="pt_bus" speedFactor="1.00" vaporized=""/>
    <tripinfo id="pt_bus_L301:0.1" depart="15132.00" departLane="--61527#3_1" departPos="12.10" departPosLat="0.00" departSpeed="0.00" departDelay="0.00" arrival="15306.00" arrivalLane="-61432#5_1" arrivalPos="3.81" arrivalPosLat="0.00" arrivalSpeed="0.66" duration="174.00" routeLength="610.48" waitingTime="3.00" waitingCount="2" stopTime="89.00" timeLoss="43.72" rerouteNo="0" devices="tripinfo_pt_bus_L301:0.1 routing_pt_bus_L301:0.1" vType="pt_bus" speedFactor="1.00" vaporized=""/>
    <tripinfo id="pt_bus_L13:1.0" depart="14818.00" departLane="-63996#3_1" departPos="12.10" departPosLat="0.00" departSpeed="0.00" departDelay="0.00" arrival="15325.00" arrivalLane="-62342#6_1" arrivalPos="269.02" arrivalPosLat="0.00" arrivalSpeed="6.86" duration="507.00" routeLength="3111.74" waitingTime="34.00" waitingCount="5" stopTime="178.00" timeLoss="175.57" rerouteNo="0" devices="tripinfo_pt_bus_L13:1.0 routing_pt_bus_L13:1.0" vType="pt_bus" speedFactor="1.00" vaporized=""/>
    <tripinfo id="pt_bus_L68:0.0" depart="14417.00" departLane="-62714#0_1" departPos="12.10" departPosLat="0.00" departSpeed="0.00" departDelay="0.00" arrival="15364.00" arrivalLane="-62342#6_1" arrivalPos="269.02" arrivalPosLat="0.00" arrivalSpeed="6.98" duration="947.00" routeLength="4935.36" waitingTime="103.00" waitingCount="5" stopTime="365.00" timeLoss="355.93" rerouteNo="0" devices="tripinfo_pt_bus_L68:0.0 routing_pt_bus_L68:0.0" vType="pt_bus" speedFactor="1.00" vaporized=""/>
    <tripinfo id="pt_bus_L301:1.1" depart="15201.00" departLane="-62281#0_1" departPos="0.44" departPosLat="0.00" departSpeed="0.00" departDelay="0.00" arrival="15378.00" arrivalLane="-61723#7_1" arrivalPos="3.36" arrivalPosLat="0.00" arrivalSpeed="0.86" duration="177.00" routeLength="732.57" waitingTime="13.00" waitingCount="2" stopTime="74.00" timeLoss="50.20" rerouteNo="0" devices="tripinfo_pt_bus_L301:1.1 routing_pt_bus_L301:1.1" vType="pt_bus" speedFactor="1.00" vaporized=""/>
    <tripinfo id="pt_bus_L84:0.1" depart="15058.00" departLane="-61672_1" departPos="12.10" departPosLat="0.00" departSpeed="0.00" departDelay="0.00" arrival="15403.00" arrivalLane="-61432#5_1" arrivalPos="3.81" arrivalPosLat="0.00" arrivalSpeed="0.72" duration="345.00" routeLength="2771.80" waitingTime="1.00" waitingCount="1" stopTime="97.00" timeLoss="88.54" rerouteNo="0" devices="tripinfo_pt_bus_L84:0.1 routing_pt_bus_L84:0.1" vType="pt_bus" speedFactor="1.00" vaporized=""/>
    <tripinfo id="pt_bus_L97B:0.0" depart="14783.00" departLane="-59772_1" departPos="12.10" departPosLat="0.00" departSpeed="0.00" departDelay="0.00" arrival="15409.00" arrivalLane="-62714#0_1" arrivalPos="27.16" arrivalPosLat="0.00" arrivalSpeed="4.50" duration="626.00" routeLength="3309.68" waitingTime="89.00" waitingCount="5" stopTime="206.00" timeLoss="276.07" rerouteNo="0" devices="tripinfo_pt_bus_L97B:0.0 routing_pt_bus_L97B:0.0" vType="pt_bus" speedFactor="1.00" vaporized=""/>
    <tripinfo id="pt_bus_L50:0.1" depart="15093.00" departLane="-63194#2_1" departPos="12.10" departPosLat="0.00" departSpeed="0.00" departDelay="0.00" arrival="15506.00" arrivalLane="-60854_1" arrivalPos="161.18" arrivalPosLat="0.00" arrivalSpeed="7.56" duration="413.00" routeLength="2778.20" waitingTime="2.00" waitingCount="1" stopTime="175.00" timeLoss="110.81" rerouteNo="0" devices="tripinfo_pt_bus_L50:0.1 routing_pt_bus_L50:0.1" vType="pt_bus" speedFactor="1.00" vaporized=""/>
    <tripinfo id="pt_bus_L19:1.1" depart="15362.00" departLane="--61863#2_1" departPos="12.10" departPosLat="0.00" departSpeed="0.00" departDelay="0.00" arrival="15522.00" arrivalLane="--62236#5_1" arrivalPos="38.74" arrivalPosLat="0.00" arrivalSpeed="4.93" duration="160.00" routeLength="531.77" waitingTime="2.00" waitingCount="1" stopTime="89.00" timeLoss="46.94" rerouteNo="0" devices="tripinfo_pt_bus_L19:1.1 routing_pt_bus_L19:1.1" vType="pt_bus" speedFactor="1.00" vaporized=""/>
    <tripinfo id="pt_tram_T2:0.0" depart="14726.00" departLane="-62632#1_0" departPos="22.10" departPosLat="0.00" departSpeed="0.00" departDelay="0.00" arrival="15526.00" arrivalLane="-62632#54_0" arrivalPos="0.51" arrivalPosLat="0.00" arrivalSpeed="1.00" duration="800.00" routeLength="3935.50" waitingTime="139.00" waitingCount="8" stopTime="243.00" timeLoss="273.61" rerouteNo="0" devices="tripinfo_pt_tram_T2:0.0 routing_pt_tram_T2:0.0" vType="pt_tram" speedFactor="1.00" vaporized=""/>
    <tripinfo id="pt_bus_L9E:0.0" depart="14974.00" departLane="--62783#1_1" departPos="12.10" departPosLat="0.00" departSpeed="0.00" departDelay="0.00" arrival="15547.00" arrivalLane="--63194#2_1" arrivalPos="79.27" arrivalPosLat="0.00" arrivalSpeed="1.78" duration="573.00" routeLength="4926.04" waitingTime="2.00" waitingCount="1" stopTime="190.00" timeLoss="136.08" rerouteNo="0" devices="tripinfo_pt_bus_L9E:0.0 routing_pt_bus_L9E:0.0" vType="pt_bus" speedFactor="1.00" vaporized=""/>
    <tripinfo id="pt_bus_BW2:0.1" depart="15119.00" departLane="-62319#6_0" departPos="12.10" departPosLat="0.00" departSpeed="0.00" departDelay="0.00" arrival="15582.00" arrivalLane="-62319#28_0" arrivalPos="219.55" arrivalPosLat="0.00" arrivalSpeed="13.79" duration="463.00" routeLength="2514.94" waitingTime="116.00" waitingCount="4" stopTime="118.00" timeLoss="254.14" rerouteNo="0" devices="tripinfo_pt_bus_BW2:0.1 routing_pt_bus_BW2:0.1" vType="pt_bus" speedFactor="1.00" vaporized=""/>
    <tripinfo id="pt_bus_L97B:1.0" depart="14935.00" departLane="-63996#3_1" departPos="12.10" departPosLat="0.00" departSpeed="0.00" departDelay="0.00" arrival="15590.00" arrivalLane="-62342#6_1" arrivalPos="269.02" arrivalPosLat="0.00" arrivalSpeed="7.47" duration="655.00" routeLength="3116.86" waitingTime="204.00" waitingCount="8" stopTime="138.00" timeLoss="362.28" rerouteNo="0" devices="tripinfo_pt_bus_L97B:1.0 routing_pt_bus_L97B:1.0" vType="pt_bus" speedFactor="1.00" vaporized=""/>
    <tripinfo id="pt_bus_L50:1.1" depart="15133.00" departLane="-61672_1" departPos="12.10" departPosLat="0.00" departSpeed="0.00" departDelay="0.00" arrival="15636.00" arrivalLane="--63194#2_1" arrivalPos="79.27" arrivalPosLat="0.00" arrivalSpeed="1.95" duration="503.00" routeLength="2786.06" waitingTime="26.00" waitingCount="4" stopTime="205.00" timeLoss="170.57" rerouteNo="1" devices="tripinfo_pt_bus_L50:1.1 routing_pt_bus_L50:1.1" vType="pt_bus" speedFactor="1.00" vaporized=""/>
    <tripinfo id="pt_bus_72:0.1" depart="15204.00" departLane="--62236#10_1" departPos="4.11" departPosLat="0.00" departSpeed="0.00" departDelay="0.00" arrival="15636.00" arrivalLane="-62281#0_1" arrivalPos="30.57" arrivalPosLat="0.00" arrivalSpeed="0.97" duration="432.00" routeLength="2183.41" waitingTime="1.00" waitingCount="1" stopTime="221.00" timeLoss="75.48" rerouteNo="1" devices="tripinfo_pt_bus_72:0.1 routing_pt_bus_72:0.1" vType="pt_bus" speedFactor="1.00" vaporized=""/>
    <tripinfo id="pt_tram_T2:1.0" depart="14885.00" departLane="63260#0_0" departPos="0.51" departPosLat="0.00" departSpeed="0.00" departDelay="0.00" arrival="15646.00" arrivalLane="-63260#53_0" arrivalPos="119.53" arrivalPosLat="0.00" arrivalSpeed="8.00" duration="761.00" routeLength="3968.03" waitingTime="113.00" waitingCount="5" stopTime="247.00" timeLoss="227.88" rerouteNo="0" devices="tripinfo_pt_tram_T2:1.0 routing_pt_tram_T2:1.0" vType="pt_tram" speedFactor="1.00" vaporized=""/>
    <tripinfo id="pt_bus_L143:1.0" depart="14753.00" departLane="--63194#2_1" departPos="12.10" departPosLat="0.00" departSpeed="0.00" departDelay="0.00" arrival="15648.00" arrivalLane="-61672_1" arrivalPos="36.14" arrivalPosLat="0.00" arrivalSpeed="0.62" duration="895.00" routeLength="6921.34" waitingTime="19.00" waitingCount="3" stopTime="226.00" timeLoss="280.66" rerouteNo="3" devices="tripinfo_pt_bus_L143:1.0 routing_pt_bus_L143:1.0" vType="pt_bus" speedFactor="1.00" vaporized=""/>
    <tripinfo id="pt_bus_BW2:1.1" depart="15303.00" departLane="-62697#3_0" departPos="12.10" departPosLat="0.00" departSpeed="0.00" departDelay="0.00" arrival="15674.00" arrivalLane="-62697#25_0" arrivalPos="277.82" arrivalPosLat="0.00" arrivalSpeed="8.53" duration="371.00" routeLength="2507.03" waitingTime="18.00" waitingCount="1" stopTime="129.00" timeLoss="151.61" rerouteNo="1" devices="tripinfo_pt_bus_BW2:1.1 routing_pt_bus_BW2:1.1" vType="pt_bus" speedFactor="1.00" vaporized=""/>
    <tripinfo id="pt_bus_L63:0.1" depart="15406.00" departLane="-62281#0_1" departPos="12.10" departPosLat="0.00" departSpeed="0.00" departDelay="0.00" arrival="15734.00" arrivalLane="-59737_1" arrivalPos="121.55" arrivalPosLat="0.00" arrivalSpeed="8.40" duration="328.00" routeLength="1547.43" waitingTime="1.00" waitingCount="1" stopTime="150.00" timeLoss="80.97" rerouteNo="0" devices="tripinfo_pt_bus_L63:0.1 routing_pt_bus_L63:0.1" vType="pt_bus" speedFactor="1.00" vaporized=""/>
    <tripinfo id="pt_bus_L13:0.1" depart="15165.00" departLane="-62142#3_1" departPos="12.10" departPosLat="0.00" departSpeed="0.00" departDelay="0.00" arrival="15773.00" arrivalLane="-62714#0_1" arrivalPos="27.16" arrivalPosLat="0.00" arrivalSpeed="4.14" duration="608.00" routeLength="2993.12" waitingTime="81.00" waitingCount="5" stopTime="228.00" timeLoss="247.01" rerouteNo="0" devices="tripinfo_pt_bus_L13:0.1 routing_pt_bus_L13:0.1" vType="pt_bus" speedFactor="1.00" vaporized=""/>
    <tripinfo id="pt_bus_L19:0.2" depart="15615.00" departLane="-62236#5_1" departPos="12.10" departPosLat="0.00" departSpeed="0.00" departDelay="0.00" arrival="15778.00" arrivalLane="-61863#2_1" arrivalPos="74.65" arrivalPosLat="0.00" arrivalSpeed="10.20" duration="163.00" routeLength="531.77" waitingTime="2.00" waitingCount="1" stopTime="94.00" timeLoss="44.73" rerouteNo="0" devices="tripinfo_pt_bus_L19:0.2 routing_pt_bus_L19:0.2" vType="pt_bus" speedFactor="1.00" vaporized=""/>
    <tripinfo id="pt_bus_L143:0.1" depart="15253.00" departLane="-60854_1" departPos="12.10" departPosLat="0.00" departSpeed="0.00" departDelay="0.00" arrival="15808.00" arrivalLane="--63194#2_1" arrivalPos="79.27" arrivalPosLat="0.00" arrivalSpeed="1.41" duration="555.00" routeLength="3606.15" waitingTime="33.00" waitingCount="3" stopTime="196.00" timeLoss="188.05" rerouteNo="0" devices="tripinfo_pt_bus_L143:0.1 routing_pt_bus_L143:0.1" vType="pt_bus" speedFactor="1.00" vaporized=""/>
    <tripinfo id="pt_bus_L63:1.1" depart="15508.00" departLane="--61863#2_1" departPos="12.10" departPosLat="0.00" departSpeed="0.00" departDelay="0.00" arrival="15817.00" arrivalLane="-62281#0_1" arrivalPos="30.57" arrivalPosLat="0.00" arrivalSpeed="5.10" duration="309.00" routeLength="1367.86" waitingTime="2.00" waitingCount="2" stopTime="148.00" timeLoss="84.86" rerouteNo="0" devices="tripinfo_pt_bus_L63:1.1 routing_pt_bus_L63:1.1" vType="pt_bus" speedFactor="1.00" vaporized=""/>
    <tripinfo id="pt_tram_T1:0.2" depart="15615.00" departLane="-61613#2_0" departPos="22.10" departPosLat="0.00" departSpeed="0.00" departDelay="0.00" arrival="15848.00" arrivalLane="-61613#10_0" arrivalPos="399.33" arrivalPosLat="0.00" arrivalSpeed="12.00" duration="233.00" routeLength="1188.24" waitingTime="42.00" waitingCount="2" stopTime="64.00" timeLoss="83.39" rerouteNo="0" devices="tripinfo_pt_tram_T1:0.2 routing_pt_tram_T1:0.2" vType="pt_tram" speedFactor="1.00" vaporized=""/>
    <tripinfo id="pt_tram_T1:1.2" depart="15652.00" departLane="-60395#0_0" departPos="22.10" departPosLat="0.00" departSpeed="0.00" departDelay="0.00" arrival="15889.00" arrivalLane="-60395#10_0" arrivalPos="118.10" arrivalPosLat="0.00" arrivalSpeed="13.89" duration="237.00" routeLength="1186.46" waitingTime="42.00" waitingCount="1" stopTime="77.00" timeLoss="73.73" rerouteNo="0" devices="tripinfo_pt_tram_T1:1.2 routing_pt_tram_T1:1.2" vType="pt_tram" speedFactor="1.00" vaporized=""/>
    <tripinfo id="pt_bus_L109:0.1" depart="15055.00" departLane="-59772_1" departPos="12.10" departPosLat="0.00" departSpeed="0.00" departDelay="0.00" arrival="15906.00" arrivalLane="--60350_1" arrivalPos="78.55" arrivalPosLat="0.00" arrivalSpeed="2.39" duration="851.00" routeLength="4665.46" waitingTime="95.00" waitingCount="4" stopTime="307.00" timeLoss="347.20" rerouteNo="0" devices="tripinfo_pt_bus_L109:0.1 routing_pt_bus_L109:0.1" vType="pt_bus" speedFactor="1.00" vaporized=""/>
    <tripinfo id="pt_bus_L301:0.2" depart="15732.00" departLane="--61527#3_1" departPos="12.10" departPosLat="0.00" departSpeed="0.00" departDelay="0.00" arrival="15906.00" arrivalLane="-61432#5_1" arrivalPos="3.81" arrivalPosLat="0.00" arrivalSpeed="1.17" duration="174.00" routeLength="610.48" waitingTime="1.00" waitingCount="1" stopTime="95.00" timeLoss="37.73" rerouteNo="0" devices="tripinfo_pt_bus_L301:0.2 routing_pt_bus_L301:0.2" vType="pt_bus" speedFactor="1.00" vaporized=""/>
    <tripinfo id="pt_bus_L68:1.0" depart="14789.00" departLane="-62142#3_1" departPos="12.10" departPosLat="0.00" departSpeed="0.00" departDelay="0.00" arrival="15921.00" arrivalLane="--62783#1_1" arrivalPos="94.97" arrivalPosLat="0.00" arrivalSpeed="10.49" duration="1132.00" routeLength="7212.15" waitingTime="25.00" waitingCount="4" stopTime="363.00" timeLoss="365.76" rerouteNo="1" devices="tripinfo_pt_bus_L68:1.0 routing_pt_bus_L68:1.0" vType="pt_bus" speedFactor="1.00" vaporized=""/>
    <tripinfo id="pt_bus_L68:0.1" depart="15017.00" departLane="-62714#0_1" departPos="12.10" departPosLat="0.00" departSpeed="0.00" departDelay="0.00" arrival="15964.00" arrivalLane="-62342#6_1" arrivalPos="269.02" arrivalPosLat="0.00" arrivalSpeed="7.31" duration="947.00" routeLength="4935.36" waitingTime="77.00" waitingCount="5" stopTime="389.00" timeLoss="331.64" rerouteNo="2" devices="tripinfo_pt_bus_L68:0.1 routing_pt_bus_L68:0.1" vType="pt_bus" speedFactor="1.00" vaporized=""/>
    <tripinfo id="pt_bus_L301:1.2" depart="15801.00" departLane="-62281#0_1" departPos="0.47" departPosLat="0.00" departSpeed="0.00" departDelay="0.00" arrival="15978.00" arrivalLane="-61723#7_1" arrivalPos="3.36" arrivalPosLat="0.00" arrivalSpeed="0.70" duration="177.00" routeLength="732.54" waitingTime="12.00" waitingCount="1" stopTime="69.00" timeLoss="55.22" rerouteNo="0" devices="tripinfo_pt_bus_L301:1.2 routing_pt_bus_L301:1.2" vType="pt_bus" speedFactor="1.00" vaporized=""/>
    <tripinfo id="pt_bus_L13:1.1" depart="15418.00" departLane="-63996#3_1" departPos="12.10" departPosLat="0.00" departSpeed="0.00" departDelay="0.00" arrival="15991.00" arrivalLane="-62342#6_1" arrivalPos="269.02" arrivalPosLat="0.00" arrivalSpeed="7.01" duration="573.00" routeLength="3111.74" waitingTime="70.00" waitingCount="7" stopTime="208.00" timeLoss="211.24" rerouteNo="0" devices="tripinfo_pt_bus_L13:1.1 routing_pt_bus_L13:1.1" vType="pt_bus" speedFactor="1.00" vaporized=""/>
    <tripinfo id="pt_bus_L84:0.2" depart="15658.00" departLane="-61672_1" departPos="12.10" departPosLat="0.00" departSpeed="0.00" departDelay="0.00" arrival="16003.00" arrivalLane="-61432#5_1" arrivalPos="3.81" arrivalPosLat="0.00" arrivalSpeed="1.06" duration="345.00" routeLength="2771.80" waitingTime="3.00" waitingCount="2" stopTime="92.00" timeLoss="93.41" rerouteNo="0" devices="tripinfo_pt_bus_L84:0.2 routing_pt_bus_L84:0.2" vType="pt_bus" speedFactor="1.00" vaporized=""/>
    <tripinfo id="pt_bus_L97B:0.1" depart="15383.00" departLane="-59772_1" departPos="12.10" departPosLat="0.00" departSpeed="0.00" departDelay="0.00" arrival="16029.00" arrivalLane="-62714#0_1" arrivalPos="27.16" arrivalPosLat="0.00" arrivalSpeed="5.03" duration="646.00" routeLength="3309.68" waitingTime="135.00" waitingCount="5" stopTime="183.00" timeLoss="318.79" rerouteNo="0" devices="tripinfo_pt_bus_L97B:0.1 routing_pt_bus_L97B:0.1" vType="pt_bus" speedFactor="1.00" vaporized=""/>