<?xml version="1.0" encoding="UTF-8"?>

<!-- generated on 2025-08-27 16:54:50 by Eclipse SUMO sumo Version c915cd253
<sumoConfiguration xmlns:xsi="http://www.w3.org/2001/XMLSchema-instance" xsi:noNamespaceSchemaLocation="http://sumo.dlr.de/xsd/sumoConfiguration.xsd">

    <input>
        <net-file value="osm.net.xml"/>
        <route-files value="trips.trips.xml"/>
        <additional-files value="osm_stops.add.xml"/>
    </input>

    <output>
        <vehroute-output value="vehroutes.xml"/>
        <stop-output value="stopinfos.xml"/>
    </output>

    <time>
        <begin value="14400.0"/>
    </time>

    <processing>
        <ignore-route-errors value="true"/>
        <time-to-teleport.disconnected value="0"/>
    </processing>

    <routing>
        <device.rerouting.adaptation-interval value="0"/>
    </routing>

    <report>
        <aggregate-warnings value="5"/>
        <error-log value="trips.trips.xml.errorlog"/>
        <no-step-log value="true"/>
    </report>

</sumoConfiguration>
-->

<routes xmlns:xsi="http://www.w3.org/2001/XMLSchema-instance" xsi:noNamespaceSchemaLocation="http://sumo.dlr.de/xsd/routes_file.xsd">
    <vehicle id="0_bus_L301:0" type="pt_bus" depart="14403.00" departLane="1" arrival="14575.00">
        <route edges="--181340#3 --181340#2 --181340#1 --181340#0 --179852#2 --179852#1 --179852#0 -178927 -180545#0 -180545#1 -180545#2 -180545#3 -180545#4 -180545#5"/>
        <stop busStop="-633967" duration="30.00"/>
        <stop busStop="-633672" duration="30.00"/>
        <stop busStop="-641493" duration="30.00"/>
    </vehicle>

    <vehicle id="10_bus_L301:1" type="pt_bus" depart="14532.00" departLane="1" arrival="14705.00">
        <route edges="-177678#0 -177678#1 -179515#0 -179515#1 -179515#2 -179261#0 -179261#1 -179261#2 -179261#3 -179261#4 -179261#5 -179559#0 -179559#1 -179559#2 -179559#3 -179559#4 -179559#5 -179559#6 -179559#7"/>
        <stop busStop="-630610" duration="30.00"/>
        <stop busStop="-642135" duration="30.00"/>
        <stop busStop="-639989" duration="30.00"/>
    </vehicle>

    <vehicle id="12_bus_L63:1" type="pt_bus" depart="14565.00" departLane="1" arrival="14877.00">
        <route edges="--177603#2 --177603#1 --177603#0 --179071#13 --179071#12 --179071#11 --179071#10 --179071#9 --179071#8 --179071#7 --179071#6 --179071#5 --179071#4 --179071#3 --179071#2 --179071#1 --179852#2 --179852#1 --179852#0 -178927 --177678#1 -179522#0 -179522#1 --181103 --179883 -177678#0"/>
        <stop busStop="-646556" duration="30.00"/>
        <stop busStop="-647519" duration="30.00"/>
        <stop busStop="-630154" duration="30.00"/>
        <stop busStop="-633672" duration="30.00"/>
        <stop busStop="-630610" duration="30.00"/>
    </vehicle>

    <vehicle id="3_bus_L50:0" type="pt_bus" depart="14417.00" departLane="1" arrival="14880.00">
        <route edges="-178024 -177898#0 -177898#1 -177898#2 -181293#0 -181293#1 -181293#2 -181293#3 -181293#4 -181517 -177374#0 -177374#1 -177374#2 -177915#0 -177915#1 -177915#2 -178236#0 -178236#1 -177745#4 --181653#14 --181653#13 --181653#12 --181653#11 --181653#10 --181653#9 --181653#8 --181653#7 --181653#5 --181653#4 --181653#2 --181653#1 --181653#0 --178009#19 --178009#18 --178009#17 --178009#15 --178009#14 --178009#13 --178009#12 --178009#11 --178009#10 --178009#8 --178009#7 --178009#6 --178009#5 --178009#4 --178009#2"/>
        <stop busStop="-640755" duration="30.00"/>
        <stop busStop="-632631" duration="30.00"/>
        <stop busStop="-629635" duration="30.00"/>
        <stop busStop="-637119" duration="30.00"/>
        <stop busStop="-638160" duration="30.00"/>
        <stop busStop="-646915" duration="30.00"/>
        <stop busStop="-634036" duration="30.00"/>
    </vehicle>

    <vehicle id="11_bus_L63:0" type="pt_bus" depart="14569.00" departLane="1" arrival="14901.00">
        <route edges="-177678#0 -177678#1 -179515#0 -179515#1 -179515#2 -179261#0 -179261#1 -179261#2 -179261#3 -179261#4 -179261#5 -179559#0 -179559#1 -179559#2 -179559#3 -179559#4 -179559#5 -179559#6 -179559#7 -179662#0 -179662#1 -179071#9 -179071#10 -179071#11 -179071#12 -179071#13 -177603#0 -177603#1 -177603#2 -177603#3 -177603#4 -177603#5 -178502#0 -180475"/>
        <stop busStop="-643745" duration="30.00"/>
        <stop busStop="-642135" duration="30.00"/>
        <stop busStop="-639989" duration="30.00"/>
        <stop busStop="-647875" duration="30.00"/>
        <stop busStop="-629455" duration="30.00"/>
    </vehicle>

    <vehicle id="17_tram_T1:0" type="pt_tram" depart="14726.00" departLane="0" arrival="14937.00">
        <route edges="-178004#0 -178004#2 -178004#3 -178004#4 -178004#6 -178004#7 -178004#8 -178004#9 -178004#10"/>
        <stop busStop="-645143" duration="30.00"/>
        <stop busStop="-639363" duration="30.00"/>
    </vehicle>

    <vehicle id="21_bus_L19:0" type="pt_bus" depart="14789.00" departLane="1" arrival="14949.00">
        <route edges="-179071#5 -179071#6 -179071#7 -179071#8 -179071#9 -179071#10 -179071#11 -179071#12 -179071#13 -177603#0 -177603#1 -177603#2"/>
        <stop busStop="-647176" duration="30.00"/>
        <stop busStop="-645144" duration="30.00"/>
        <stop busStop="-647875" duration="30.00"/>
    </vehicle>

    <vehicle id="15_bus_72:0" type="pt_bus" depart="14671.00" departLane="1" arrival="14968.00">
        <route edges="--179071#10 --179119 -178149#1 -177310#0 -177310#1 -177310#2 -179071#12 -179071#13 -177603#0 -177603#1 -177603#2 -180916#1 -178098#0 --179308#1 --179308#0 --177603#4 --177603#3 --177603#2 --177603#1 --177603#0 --179071#13 --179071#12 --179071#11 --179071#10 --179071#9 --179071#8 --179071#7 --179071#6 --179071#5 --179071#4 --179071#3 --179071#2 --179071#1 --179852#2 --179852#1 --179852#0 -178927 --177678#1 -179522#0 -179522#1 --181103 --179883 -177678#0"/>
        <stop busStop="-646024" duration="30.00"/>
        <stop busStop="-646556@-2064" duration="30.00"/>
        <stop busStop="-644329" duration="30.00"/>
    </vehicle>

    <vehicle id="26_bus_L19:1" type="pt_bus" depart="14885.00" departLane="1" arrival="15044.00">
        <route edges="--177603#2 --177603#1 --177603#0 --179071#13 --179071#12 --179071#11 --179071#10 --179071#9 --179071#8 --179071#7 --179071#6 --179071#5"/>
        <stop busStop="-646556" duration="30.00"/>
        <stop busStop="-647519" duration="30.00"/>
        <stop busStop="-630154" duration="30.00"/>
    </vehicle>

    <vehicle id="16_bus_L84:0" type="pt_bus" depart="14703.00" departLane="1" arrival="15045.00">
        <route edges="-178024 -177898#0 -177898#1 -177898#2 -181293#0 -181293#1 -181293#2 -181293#3 -181293#4 -180605#5 -180605#6 -180102#1 -180102#2 -180102#3 -180102#4 -180263#1 -180263#2 -180263#4 -180263#5 -178046#0 -178046#1 -178046#2 --181477#3 --181477#2 --181477#1 --181477#0 -178402#5 -178402#6 -178760#0 -178760#1 -178760#2 -178760#3 -178927 --177678#1 -179522#0 -179522#1 --181103 --179883 -177678#0 -177678#1 -180545#0 -180545#1 -180545#2 -180545#3 -180545#4 -180545#5"/>
        <stop busStop="-640755" duration="30.00"/>
        <stop busStop="-630610" duration="30.00"/>
        <stop busStop="-641493" duration="30.00"/>
    </vehicle>

    <vehicle id="9_bus_L9E:0" type="pt_bus" depart="14531.00" departLane="1" arrival="15099.00">
        <route edges="--177764#1 --178768#3 --178768#2 --178768#1 --178768#0 -179530 -178135#0 -178135#1 -178135#2 -180391#0 -180391#1 -180391#2 -180418#0 -180418#1 -180283#1 -180283#2 -178132 -177661 -177728 -180300 -180678#0 -180678#1 -181436#0 -181436#1 -181436#2 --178152#3 --178152#2 --178152#1 --178152#0 --177880#0 --181680 -178426#0 -178426#1 -181028#0 -181028#1 -181028#2 -181028#3 -181028#4 -181028#5 -181412#0 -181412#1 -181412#2 -181412#3 -181412#4 -181412#5 -177846#0 -177846#1 -177846#2 -178024 -177898#0 -177898#1 -177898#2 -181293#0 -181293#1 -181293#2 -181293#3 -181293#4 -180605#5 -180605#6 -180102#1 -180102#2 -180102#3 -180102#4 -180263#1 -180263#2 -180263#4 -180263#5 -178046#0 -178046#1 -178046#2 --181477#3 --181477#2 --181477#1 --181477#0 --178402#4 --178402#3 --178402#2 --178402#1 --178402#0 --178009#19 --178009#18 --178009#17 --178009#15 --178009#14 --178009#13 --178009#12 --178009#11 --178009#10 --178009#8 --178009#7 --178009#6 --178009#5 --178009#4 --178009#2"/>
        <stop busStop="-637332" duration="30.00"/>
        <stop busStop="-636445" duration="30.00"/>
        <stop busStop="-640755" duration="30.00"/>
        <stop busStop="-639018" duration="30.00"/>
        <stop busStop="-646915" duration="30.00"/>
        <stop busStop="-634036" duration="30.00"/>
    </vehicle>

    <vehicle id="25_tram_T1:1" type="pt_tram" depart="14888.00" departLane="0" arrival="15110.00">
        <route edges="-181489#2 -177931 178004#8 178004#7 178004#6 178004#4 178004#3 -179267 -181489#8 -181489#10"/>
        <stop busStop="-641485" duration="30.00"/>
        <stop busStop="-644367" duration="30.00"/>
    </vehicle>

    <vehicle id="6_bus_L13:0" type="pt_bus" depart="14459.00" departLane="1" arrival="15129.00">
        <route edges="-179664#3 -179664#4 -179664#5 -179664#8 -179664#9 -179664#10 -177532#0 -177532#1 -178849#4 -180244 -180285#0 -180285#1 -180285#2 -180285#3 -181660#1 -181660#2 -181660#5 -181660#6 -179097#2 -179097#3 -178794 -177515#0 -177515#1 -177515#2 -177467#0 -177467#1 -177467#2 -180095#1 -179118#1 -179118#2 -179118#3 -180765#0 -180765#1 -180765#2 -179824 -181332#0 -181332#1 -179995 -180187#0"/>
        <stop busStop="-645244" duration="30.00"/>
        <stop busStop="-644616" duration="30.00"/>
        <stop busStop="-644063" duration="30.00"/>
        <stop busStop="-630256" duration="30.00"/>
        <stop busStop="-637686" duration="30.00"/>
        <stop busStop="-645667" duration="30.00"/>
    </vehicle>

    <vehicle id="7_bus_L97B:1" type="pt_bus" depart="14493.00" departLane="1" arrival="15129.00">
        <route edges="-179063#3 -177672#0 -177672#1 -181146#0 -181146#1 -181146#2 -180991#0 -180991#1 -180129#0 -181236#1 -181236#2 -181236#3 -178766#1 -178766#2 -181159#0 -181159#1 -180280#0 -180280#1 -180280#2 -180280#3 -180280#4 -177922#0 -177922#1 -177922#2 -180423#0 -180423#1 -181457#0 -181457#1 -181457#2 -181457#3 -181457#4 -181457#5 -181457#6 -181457#7 -181659#0 -181659#1 -181659#2 -181659#3 -179517#1 -177552#1 -177552#2 -177552#4 -180843#1 -180843#2 -180843#3 -180843#6"/>
        <stop busStop="-646707" duration="30.00"/>
        <stop busStop="-636324" duration="30.00"/>
        <stop busStop="-643641" duration="30.00"/>
        <stop busStop="-634109" duration="30.00"/>
        <stop busStop="-637264" duration="30.00"/>
        <stop busStop="-637075" duration="30.00"/>
    </vehicle>

    <vehicle id="18_bus_BW2:0" type="pt_bus" depart="14753.00" departLane="0" arrival="15156.00">
        <route edges="-180605#3 -181517 -177374#0 -177374#1 -177374#2 -180605#8 -180605#10 -180605#11 -180605#14 -180605#15 -180605#16 -180605#17 -180605#18 -180605#19 -180605#20 -180605#22 -180605#23 -180605#24 -180605#25"/>
        <stop busStop="-630637" duration="30.00"/>
        <stop busStop="-649480" duration="30.00"/>
        <stop busStop="-637416" duration="30.00"/>
        <stop busStop="-645324" duration="30.00"/>
        <stop busStop="-636467" duration="30.00"/>
    </vehicle>

    <vehicle id="1_bus_L97B:0" type="pt_bus" depart="14415.00" departLane="1" arrival="15167.00">
        <route edges="-177456 -179664#3 -179664#4 -179664#5 -179664#8 -179664#9 -179664#10 -177532#0 -177532#1 -178849#4 -180244 -180285#0 -180285#1 -180285#2 -180285#3 -181660#1 -181660#2 -181660#5 -181660#6 -179097#2 -179097#3 -178794 -177515#0 -177515#1 -177515#2 -177467#0 -177467#1 -177467#2 -180095#1 -179118#1 -179118#2 -179118#3 -180765#0 -180765#1 -180765#2 -179824 -181332#0 -181332#1 -179995 -180187#0"/>
        <stop busStop="-629689" duration="30.00"/>
        <stop busStop="-645244" duration="30.00"/>
        <stop busStop="-644616" duration="30.00"/>
        <stop busStop="-644063" duration="30.00"/>
        <stop busStop="-630256" duration="30.00"/>
        <stop busStop="-637686" duration="30.00"/>
        <stop busStop="-645667" duration="30.00"/>
    </vehicle>

    <vehicle id="5_tram_T2:1" type="pt_tram" depart="14455.00" departLane="0" arrival="15182.00">
        <route edges="178073#0 181475#53 181475#52 181475#51 181475#49 181475#48 -179153 -178073#7 -178073#8 -178073#9 -178073#10 -178073#11 -178073#12 -178073#13 -178073#15 -178073#18 -178073#21 -178073#23 -178073#24 -178073#29 -178073#30 -178073#31 -178073#32 -178073#33 -178073#34 -178073#35 -178073#39 -178073#40 -178073#41 -178073#42 -178073#43 -178073#44 -178073#45 -178073#46 -178073#47 -178073#50 -178073#51 -178073#52 -178073#53"/>
        <stop busStop="647234" duration="30.00"/>
        <stop busStop="-631403" duration="30.00"/>
        <stop busStop="-632608" duration="30.00"/>
        <stop busStop="-638673" duration="30.00"/>
        <stop busStop="-635306" duration="30.00"/>
        <stop busStop="-631631" duration="30.00"/>
        <stop busStop="-630708" duration="30.00"/>
        <stop busStop="-639358" duration="30.00"/>
    </vehicle>

    <vehicle id="2_tram_T2:0" type="pt_tram" depart="14415.00" departLane="0" arrival="15196.00">
        <route edges="-181475#1 -181475#2 -181475#3 -181475#4 -181475#8 -181475#9 -181475#10 -181475#11 -181475#12 -181475#13 -181475#14 -181475#15 -181475#19 -181475#20 -181475#21 -181475#22 -181475#23 -181475#24 -181475#25 -181475#30 -181475#31 -181475#33 -181475#36 -181475#39 -181475#41 -181475#42 -181475#43 -181475#44 -181475#45 -181475#46 -181475#47 -181475#48 -181475#49 -181475#51 -181475#52 -181475#53 -181475#54"/>
        <stop busStop="-637986" duration="30.00"/>
        <stop busStop="-642554" duration="30.00"/>
        <stop busStop="-640970" duration="30.00"/>
        <stop busStop="-647232" duration="30.00"/>
        <stop busStop="-630498" duration="30.00"/>
        <stop busStop="-650404" duration="30.00"/>
        <stop busStop="-649549" duration="30.00"/>
        <stop busStop="-646730" duration="30.00"/>
    </vehicle>

    <vehicle id="24_bus_BW2:1" type="pt_bus" depart="14841.00" departLane="0" arrival="15267.00">
        <route edges="-181310#6 -181310#7 -181310#8 -181310#9 -181310#11 -181310#12 -181310#13 -181310#14 -181310#15 -181310#16 -181310#17 -181310#20 -181310#21 -181310#23 -177360#0 -177360#1 -181310#28"/>
        <stop busStop="-641652" duration="30.00"/>
        <stop busStop="-629552" duration="30.00"/>
        <stop busStop="-629960" duration="30.00"/>
        <stop busStop="-646132" duration="30.00"/>
        <stop busStop="-636312" duration="30.00"/>
    </vehicle>

    <vehicle id="19_bus_L143:0" type="pt_bus" depart="14762.00" departLane="1" arrival="15296.00">
        <route edges="-179855 -177504#3 -177504#4 -177504#5 -177504#6 -177504#7 -177504#8 --178367#10 --178367#8 --178367#7 --178367#6 --178367#5 --178367#4 --178367#2 --178367#1 --178367#0 --177864 -179094#1 -179094#2 -178964#0 -181517 -177374#0 -177374#1 -177374#2 -177915#0 -177915#1 -177915#2 -178236#0 -178236#1 -177745#4 --181653#14 --181653#13 --181653#12 --181653#11 --181653#10 --181653#9 --181653#8 --181653#7 --181653#5 --181653#4 --181653#2 --181653#1 --181653#0 --178009#19 --178009#18 --178009#17 --178009#15 --178009#14 --178009#13 --178009#12 --178009#11 --178009#10 --178009#8 --178009#7 --178009#6 --178009#5 --178009#4 --178009#2"/>
        <stop busStop="-635191" duration="30.00"/>
        <stop busStop="-639573" duration="30.00"/>
        <stop busStop="-646629" duration="30.00"/>
        <stop busStop="-629635" duration="30.00"/>
        <stop busStop="-638160" duration="30.00"/>
        <stop busStop="-646915" duration="30.00"/>
        <stop busStop="-634036" duration="30.00"/>
    </vehicle>

    <vehicle id="27_bus_L50:1" type="pt_bus" depart="14908.00" departLane="1" arrival="15324.00">
        <route edges="-178009#2 -178009#4 -178009#5 -178009#6 -178009#7 -178009#8 -178009#10 -178009#11 -178009#12 -178009#13 -178009#14 -178009#15 -178009#17 -178009#18 -178009#19 -181653#0 -181653#1 -181653#2 -181653#4 -181653#5 -181653#7 -181653#8 -181653#9 -181653#10 -181653#11 -181653#12 -181653#13 -181653#14 -177913#0 -178629#0 -178629#1 -178629#2 -178629#3 -178629#4 -177360#0 -177360#1 -181030 -179855"/>
        <stop busStop="-636293@-2086" duration="30.00"/>
        <stop busStop="-630250@-2086" duration="30.00"/>
        <stop busStop="-634407@-2086" duration="30.00"/>
        <stop busStop="-632331@-2076" duration="30.00"/>
        <stop busStop="-633153" duration="30.00"/>
        <stop busStop="-635191" duration="30.00"/>
    </vehicle>

    <vehicle id="13_bus_L68:1" type="pt_bus" depart="14601.00" departLane="1" arrival="15447.00">
        <route edges="-180187#0 -180187#2 --177833 --177764#3 --177764#1 --178768#3 --178768#2 --178768#1 --178768#0 -179530 -178135#0 -178135#1 -178135#2 -180391#0 -180391#1 -180391#2 -180418#0 -180418#1 -180283#1 -180283#2 -178132 -177661 -177728 -180300 -180678#0 -180678#1 -181436#0 -181436#1 -181436#2 --178152#3 --178152#2 --178152#1 --178152#0 --177880#0 --181680 -178426#0 -178426#1 -181028#0 -181028#1 -181028#2 -181028#3 -181028#4 -181028#5 --178367#10 --178367#8 --178367#7 --178367#6 --178367#5 --178367#4 --178367#2 --178367#1 --178367#0 --177864 -179094#1 -179094#2 -178964#0 -181517 -177374#0 -177374#1 -177374#2 -177915#0 -177915#1 -177915#2 -178236#0 -178236#1 -179073#0 -179073#1 -179073#2 -178693 -181658#0 -181658#1 -180605#14 -180843#1 -180843#2 -180843#3 -180843#6"/>
        <stop busStop="-645667" duration="30.00"/>
        <stop busStop="-637332" duration="30.00"/>
        <stop busStop="-644297" duration="30.00"/>
        <stop busStop="-640798" duration="30.00"/>
        <stop busStop="-629239" duration="30.00"/>
        <stop busStop="-639573" duration="30.00"/>
        <stop busStop="-646629" duration="30.00"/>
        <stop busStop="-632631" duration="30.00"/>
        <stop busStop="-629635" duration="30.00"/>
        <stop busStop="-648811" duration="30.00"/>
        <stop busStop="-637264" duration="30.00"/>
        <stop busStop="-637075" duration="30.00"/>
    </vehicle>

    <vehicle id="29_bus_L13:1" type="pt_bus" depart="14974.00" departLane="1" arrival="15517.00">
        <route edges="-179063#3 -177672#0 -177672#1 -181146#0 -181146#1 -181146#2 -180991#0 -180991#1 -180129#0 -181236#1 -181236#2 -181236#3 -178766#1 -178766#2 -181159#0 -181159#1 -180280#0 -180280#1 -180280#2 -180280#3 -180280#4 -177922#0 -177922#1 -177922#2 -180423#0 -180423#1 -181457#0 -181457#1 -181457#2 -181457#3 -181457#4 -181457#5 -181457#6 -181457#7 -181659#0 -181659#1 -181659#2 -181659#3 -179517#1 -177552#1 -177552#2 -177552#4 -180843#1 -180843#2 -180843#3 -180843#6"/>
        <stop busStop="-646707" duration="30.00"/>
        <stop busStop="-636324" duration="30.00"/>
        <stop busStop="-643641" duration="30.00"/>
        <stop busStop="-634109" duration="30.00"/>
        <stop busStop="-637264" duration="30.00"/>
        <stop busStop="-637075" duration="30.00"/>
    </vehicle>

    <vehicle id="4_bus_L68:0" type="pt_bus" depart="14452.00" departLane="1" arrival="15540.00">
        <route edges="-179664#3 -179664#4 -179664#5 -179664#8 -179664#9 -179664#10 -177532#0 -177532#1 -178285#0 -178285#1 -178285#2 -178285#3 -178285#4 -178285#5 -178285#6 -178285#7 -178285#8 -178285#9 -178285#10 -178285#11 -178629#0 -178629#1 -178629#2 -178629#3 -178629#4 -177360#0 -177360#1 -181030 --179996#2 --179996#1 --180842#1 --180842#0 --178641#4 --178641#3 --178641#2 --178641#1 --178641#0 --178367#7 --178367#6 --178367#5 --178367#4 --178367#2 --178367#1 --178367#0 -179407#0 -179407#1 -179407#2 -178526#5 -178526#6 -178526#7 -178526#8 -178526#9 -178526#10 -178426#0 -178426#1 -181028#0 -181028#1 -181028#2 -181028#3 -181028#4 -181028#5 --178367#10 -177957#0 -177957#2 -177957#4 -177957#5 -177957#6 -177957#7 -177957#9 -177957#10 -178526#10 -181680 -179466#0 -180333 --179587#0 --179907#0 --177880#0 -179466#0 -180333 --179587#0 -179907#1 -179907#2 -178311#0 -178311#1 -178311#2 -178311#4 -178311#5 -180796#0 -180796#1 -180796#2 -179748 -180496#0 -178466#0 -179450#0 -179450#1 -179972 -180945#3 -180283#2 -178132 -177661 -177728 -180300 -181696 -178967#0 -178967#1 -178967#2 -181047 --180283#2 --180283#1 --180418#1 --180418#0 -179606#1 -179936 -179601#0 -179601#1 -179601#2 -179601#3 -180758#0 -180391#0 -180391#1 -180391#2 -179606#1 -179936 -179601#0 -179601#1 -179601#2 -179601#3 -181188#0 -181188#1 -181188#2 -178825#0 --178768#0 -179530 --178083#0 -178825#0 -178768#1 -178768#2 -178768#3 -177764#1 --180713 --179198#3 --177936 --177764#3 --177764#1"/>
        <stop busStop="-645244" duration="30.00"/>
        <stop busStop="-644616" duration="30.00"/>
        <stop busStop="-635710" duration="30.00"/>
        <stop busStop="-647547" duration="30.00"/>
        <stop busStop="-650614" duration="30.00"/>
        <stop busStop="-647417" duration="30.00"/>
        <stop busStop="-635568" duration="30.00"/>
        <stop busStop="-647165" duration="30.00"/>
        <stop busStop="-632301" duration="30.00"/>
    </vehicle>

    <vehicle id="20_bus_L143:1" type="pt_bus" depart="14783.00" departLane="1" arrival="15687.00">
        <route edges="--178009#2 -179019 --177491#0 -180916#9 -178009#4 -178009#5 -178009#6 -178009#7 -178009#8 -178009#10 -178493#0 --177614 --181421#7 --178009#12 --178009#11 -178493#0 -178493#1 -178493#2 -178493#3 -178493#4 -179007#0 -179007#1 -179007#2 -179007#3 -179007#4 -179007#5 --181653#5 --181653#4 --181653#2 --181653#1 --181653#0 --178009#19 -181143#0 -177895#0 -177895#1 --181426#0 -178009#18 -178009#19 -181653#0 -181653#1 -181653#2 -181653#4 -181653#5 -181653#7 -181653#8 -181653#9 -181653#10 -181653#11 -181653#12 --180018 -181372#3 -181372#4 -181372#5 --179196#0 --181653#14 --181653#13 --180018 -181372#3 -181372#4 -181372#5 --179196#0 -177913#0 -178629#0 -178629#1 -178629#2 -178629#3 -178629#4 -177360#0 -177360#1 -181517 -177374#0 -180071#0 --179986 --181264#0 -177360#0 -177360#1 -181030 --179996#2 --179996#1 --180842#1 --180842#0 --178641#4 --178641#3 --178641#2 --178641#1 --178641#0 --178367#7 --178367#6 --178367#5 --178367#4 --178367#2 --178367#1 --178367#0 -179407#0 -179407#1 -179407#2 -178526#5 -178526#6 -178526#7 -178526#8 -178526#9 -178526#10 -178426#0 -178426#1 -181028#0 -181028#1 -181028#2 -181028#3 -181028#4 -181028#5 --178367#10 --178933#4 -180982 -181412#2 -181412#3 -181412#4 -181412#5 -177846#0 -177846#1 -177846#2 -178024"/>
        <stop busStop="-636293" duration="30.00"/>
        <stop busStop="-630250" duration="30.00"/>
        <stop busStop="-634407" duration="30.00"/>
        <stop busStop="-644909" duration="30.00"/>
        <stop busStop="-632331" duration="30.00"/>
        <stop busStop="-635710" duration="30.00"/>
        <stop busStop="-647547" duration="30.00"/>
        <stop busStop="-640755" duration="30.00"/>
    </vehicle>

    <vehicle id="22_bus_L109:0" type="pt_bus" depart="14806.00" departLane="1" arrival="15719.00">
        <route edges="-177456 -179664#3 -179664#4 -179664#5 -179664#8 -179664#9 -179664#10 -177532#0 -177532#1 -178285#0 -178285#1 -178285#2 -178285#3 -178285#4 -178285#5 -178285#6 -178285#7 -178285#8 -178285#9 -178285#10 -178285#11 -178629#0 -178629#1 -178629#2 -178629#3 -178629#4 -177360#0 -177360#1 -178517#1 -178517#2 -178367#0 -178367#1 -178367#2 -178367#4 -178367#5 -178367#6 -178367#7 -178367#8 -178367#10 -179738#0 -179738#1 -179738#2 -179738#3 -178269#1 -178269#2 -177880#0 -178152#0 -178152#1 -178152#2 -178152#3 -181163#0 -181163#1 -181163#2 -181163#3 -181163#4 -178967#0 -178967#1 -178967#2 -181047 --180283#2 --180283#1 --180418#1 --180418#0 --180391#2 --180391#1 --180391#0 --178135#2 --178135#1 --178135#0 --179530"/>
        <stop busStop="-629689" duration="30.00"/>
        <stop busStop="-645244" duration="30.00"/>
        <stop busStop="-644616" duration="30.00"/>
        <stop busStop="-648583" duration="30.00"/>
        <stop busStop="-632331@-2076" duration="30.00"/>
        <stop busStop="-633153" duration="30.00"/>
        <stop busStop="-635710@-2076" duration="30.00"/>
        <stop busStop="-647547@-2076" duration="30.00"/>
        <stop busStop="-650614@-2076" duration="30.00"/>
        <stop busStop="-647417@-2076" duration="30.00"/>
        <stop busStop="-635568@-2076" duration="30.00"/>
        <stop busStop="-640677" duration="30.00"/>
    </vehicle>

</routes>
