<?xml version="1.0" encoding="UTF-8"?>

<!-- generated on 2025-09-14 02:58:03 by Eclipse SUMO GUI Version c915cd253
<sumoConfiguration xmlns:xsi="http://www.w3.org/2001/XMLSchema-instance" xsi:noNamespaceSchemaLocation="http://sumo.dlr.de/xsd/sumoConfiguration.xsd">

    <input>
        <net-file value="/home/dahou/Desktop/StageLIDSI/episodes_start/SUMOActivityGenC_episode2/episode2_test2/osm.net.xml"/>
        <route-files value="/home/dahou/Desktop/StageLIDSI/episodes_start/SUMOActivityGenC_episode2/episode2_test2/osm_activitygen.merged.rou.xml"/>
        <additional-files value="/home/dahou/Desktop/StageLIDSI/episodes_start/SUMOActivityGenC_episode2/episode2_test2/osm_polygons.add.xml,/home/dahou/Desktop/StageLIDSI/episodes_start/SUMOActivityGenC_episode2/episode2_test2/basic.vType.xml,/home/dahou/Desktop/StageLIDSI/episodes_start/SUMOActivityGenC_episode2/episode2_test2/osm_stops.add.xml,/home/dahou/Desktop/StageLIDSI/episodes_start/SUMOActivityGenC_episode2/episode2_test2/osm_complete_parking_areas.add.xml,/home/dahou/Desktop/StageLIDSI/episodes_start/SUMOActivityGenC_episode2/episode2_test2/osm_parking_rerouters.add.xml,/home/dahou/Desktop/StageLIDSI/episodes_start/SUMOActivityGenC_episode2/episode2_test2/osm_taxi_stands.add.xml,/home/dahou/Desktop/StageLIDSI/episodes_start/SUMOActivityGenC_episode2/episode2_test2/osm_taxi_rerouters.add.xml"/>
    </input>

    <output>
        <output-prefix value="output."/>
        <summary-output value="/home/dahou/Desktop/StageLIDSI/episodes_start/SUMOActivityGenC_episode2/episode2_test2/summary.xml"/>
        <person-summary-output value="/home/dahou/Desktop/StageLIDSI/episodes_start/SUMOActivityGenC_episode2/episode2_test2/person.summary.xml"/>
        <tripinfo-output value="/home/dahou/Desktop/StageLIDSI/episodes_start/SUMOActivityGenC_episode2/episode2_test2/tripinfo.xml"/>
        <tripinfo-output.write-unfinished value="false"/>
        <statistic-output value="/home/dahou/Desktop/StageLIDSI/episodes_start/SUMOActivityGenC_episode2/episode2_test2/statistics.xml"/>
    </output>

    <time>
        <begin value="0.0"/>
        <end value="86400.0"/>
        <step-length value="1"/>
    </time>

    <processing>
        <lateral-resolution value="0.8"/>
        <ignore-junction-blocker value="60"/>
        <ignore-route-errors value="true"/>
        <collision.action value="teleport"/>
        <max-num-teleports value="5"/>
        <time-to-teleport value="300"/>
        <time-to-teleport.disconnected value="60"/>
        <max-depart-delay value="900"/>
        <time-to-impatience value="120"/>
        <parking.maneuver value="true"/>
        <pedestrian.model value="striping"/>
        <pedestrian.striping.stripe-width value="0.55"/>
        <pedestrian.striping.dawdling value="0.2"/>
        <pedestrian.striping.jamtime value="60"/>
        <pedestrian.striping.jamtime.crossing value="10"/>
        <pedestrian.striping.reserve-oncoming value="0.25"/>
        <pedestrian.striping.reserve-oncoming.junctions value="0.34"/>
        <ride.stop-tolerance value="25"/>
    </processing>

    <routing>
        <routing-algorithm value="astar"/>
        <persontrip.walkfactor value="0.75"/>
        <persontrip.transfer.car-walk value="parkingAreas,allJunctions"/>
        <persontrip.transfer.taxi-walk value="parkingAreas,allJunctions"/>
        <persontrip.transfer.walk-taxi value="parkingAreas,allJunctions"/>
        <persontrip.taxi.waiting-time value="300"/>
        <device.rerouting.probability value="1"/>
        <device.rerouting.period value="300"/>
        <device.rerouting.pre-period value="300"/>
        <device.rerouting.bike-speeds value="true"/>
        <person-device.rerouting.probability value="1"/>
        <person-device.rerouting.period value="300"/>
    </routing>

    <report>
        <verbose value="true"/>
        <no-warnings value="false"/>
        <duration-log.disable value="false"/>
        <duration-log.statistics value="true"/>
        <no-step-log value="false"/>
    </report>

    <taxi_device>
        <device.taxi.dispatch-algorithm value="greedy"/>
        <device.taxi.dispatch-algorithm.output value="/home/dahou/Desktop/StageLIDSI/episodes_start/SUMOActivityGenC_episode2/episode2_test2/taxi.dispatch.xml"/>
        <device.taxi.dispatch-period value="60"/>
        <device.taxi.idle-algorithm value="stop"/>
        <device.taxi.idle-algorithm.output value="/home/dahou/Desktop/StageLIDSI/episodes_start/SUMOActivityGenC_episode2/episode2_test2/taxi.idle.xml"/>
    </taxi_device>

    <random_number>
        <seed value="42"/>
    </random_number>

    <gui_only>
        <gui-settings-file value="/home/dahou/Desktop/StageLIDSI/episodes_start/SUMOActivityGenC_episode2/episode2_test2/default-gui.xml"/>
    </gui_only>

</sumoConfiguration>
-->

<tripinfos xmlns:xsi="http://www.w3.org/2001/XMLSchema-instance" xsi:noNamespaceSchemaLocation="http://sumo.dlr.de/xsd/tripinfo_file.xsd">
    <tripinfo id="-1903_-1891_2_tr" depart="20138.00" departLane="-167036#5_1" departPos="5.10" departPosLat="0.00" departSpeed="0.00" departDelay="0.00" arrival="47090.00" arrivalLane="-167036#5_1" arrivalPos="200.20" arrivalPosLat="0.00" arrivalSpeed="2.53" duration="26952.00" routeLength="7288.17" waitingTime="183.00" waitingCount="7" stopTime="26244.00" timeLoss="289.73" rerouteNo="0" devices="tripinfo_-1903_-1891_2_tr routing_-1903_-1891_2_tr person_-1903_-1891_2_tr" vType="passenger2a" speedFactor="1.05" vaporized=""/>
    <personinfo id="-1903_-1891_2" depart="20138.00" type="pedestrian" speedFactor="0.97" duration="26953.00" waitingTime="1.00" timeLoss="306.71" traveltime="892.00">
        <ride waitingTime="0.00" vehicle="-1903_-1891_2_tr" depart="20138.00" arrival="20503.00" arrivalPos="36.26" duration="365.00" routeLength="3412.97" timeLoss="142.06"/>
        <walk depart="20503.00" departPos="36.26" arrival="20601.00" arrivalPos="25.11" duration="98.00" routeLength="120.19" timeLoss="8.90" maxSpeed="1.35" waitingTime="0.00"/>
        <stop duration="26059.00" arrival="46660.00" arrivalPos="25.11" actType="P-Work"/>
        <walk depart="46660.00" departPos="25.11" arrival="46745.00" arrivalPos="38.66" duration="85.00" routeLength="103.75" timeLoss="8.08" maxSpeed="1.35" waitingTime="0.00"/>
        <ride waitingTime="1.00" vehicle="-1903_-1891_2_tr" depart="46746.00" arrival="47090.00" arrivalPos="200.20" duration="344.00" routeLength="3875.20" timeLoss="147.68"/>
        <stop duration="1.00" arrival="47091.00" arrivalPos="17.32" actType="Home"/>
    </personinfo>
    <tripinfo id="-1903_-1897_5_tr" depart="22448.00" departLane="--165866#0_1" departPos="5.10" departPosLat="0.00" departSpeed="0.00" departDelay="0.00" arrival="49520.00" arrivalLane="--165866#0_1" arrivalPos="155.24" arrivalPosLat="0.00" arrivalSpeed="2.36" duration="27072.00" routeLength="5510.65" waitingTime="34.00" waitingCount="4" stopTime="26641.00" timeLoss="105.04" rerouteNo="0" devices="tripinfo_-1903_-1897_5_tr routing_-1903_-1897_5_tr person_-1903_-1897_5_tr" vType="passenger1" speedFactor="0.99" vaporized=""/>
    <personinfo id="-1903_-1897_5" depart="22448.00" type="pedestrian" speedFactor="1.03" duration="27072.00" waitingTime="1.00" timeLoss="177.44" traveltime="1184.00">
        <ride waitingTime="0.00" vehicle="-1903_-1897_5_tr" depart="22448.00" arrival="22695.00" arrivalPos="10.10" duration="247.00" routeLength="2903.91" timeLoss="68.02"/>
        <walk depart="22695.00" departPos="10.10" arrival="23076.00" arrivalPos="53.65" duration="381.00" routeLength="491.67" timeLoss="36.40" maxSpeed="1.43" waitingTime="0.00"/>
        <stop duration="25886.00" arrival="48962.00" arrivalPos="53.65" actType="P-Work"/>
        <walk depart="48962.00" departPos="53.65" arrival="49334.00" arrivalPos="12.50" duration="372.00" routeLength="478.23" timeLoss="36.83" maxSpeed="1.43" waitingTime="0.00"/>
        <ride waitingTime="1.00" vehicle="-1903_-1897_5_tr" depart="49335.00" arrival="49519.00" arrivalPos="155.22" duration="184.00" routeLength="2606.73" timeLoss="36.19"/>
        <stop duration="1.00" arrival="49520.00" arrivalPos="145.04" actType="Home"/>
    </personinfo>
    <tripinfo id="-1891_-1891_0_tr" depart="23003.00" departLane="--169165#2_1" departPos="5.10" departPosLat="0.00" departSpeed="0.00" departDelay="0.00" arrival="50332.00" arrivalLane="--169165#2_1" arrivalPos="57.07" arrivalPosLat="0.00" arrivalSpeed="2.33" duration="27329.00" routeLength="4018.07" waitingTime="29.00" waitingCount="4" stopTime="27011.00" timeLoss="113.83" rerouteNo="0" devices="tripinfo_-1891_-1891_0_tr routing_-1891_-1891_0_tr person_-1891_-1891_0_tr" vType="passenger2b" speedFactor="1.04" vaporized=""/>
    <personinfo id="-1891_-1891_0" depart="23003.00" type="pedestrian" speedFactor="1.25" duration="27329.00" waitingTime="2.00" timeLoss="178.72" traveltime="933.00">
        <ride waitingTime="0.00" vehicle="-1891_-1891_0_tr" depart="23003.00" arrival="23148.00" arrivalPos="10.10" duration="145.00" routeLength="1869.03" timeLoss="57.33"/>
        <walk depart="23148.00" departPos="10.10" arrival="23456.00" arrivalPos="51.72" duration="308.00" routeLength="475.80" timeLoss="33.02" maxSpeed="1.73" waitingTime="0.00"/>
        <stop duration="26394.00" arrival="49850.00" arrivalPos="51.72" actType="P-Work"/>
        <walk depart="49850.00" departPos="51.72" arrival="50157.00" arrivalPos="12.50" duration="307.00" routeLength="474.60" timeLoss="32.71" maxSpeed="1.73" waitingTime="1.00"/>
        <ride waitingTime="1.00" vehicle="-1891_-1891_0_tr" depart="50158.00" arrival="50331.00" arrivalPos="57.06" duration="173.00" routeLength="2149.03" timeLoss="55.66"/>
        <stop duration="1.00" arrival="50332.00" arrivalPos="31.64" actType="Home"/>
    </personinfo>
    <tripinfo id="-1932_-1932_31_tr" depart="23522.00" departLane="-168886#1_1" departPos="5.10" departPosLat="0.00" departSpeed="0.00" departDelay="0.00" arrival="50974.00" arrivalLane="-168886#1_1" arrivalPos="46.91" arrivalPosLat="0.00" arrivalSpeed="1.58" duration="27452.00" routeLength="3800.15" waitingTime="7.00" waitingCount="1" stopTime="27178.00" timeLoss="74.97" rerouteNo="0" devices="tripinfo_-1932_-1932_31_tr routing_-1932_-1932_31_tr person_-1932_-1932_31_tr" vType="passenger3" speedFactor="1.06" vaporized=""/>
    <personinfo id="-1932_-1932_31" depart="23522.00" type="pedestrian" speedFactor="0.92" duration="27452.00" waitingTime="1.00" timeLoss="137.80" traveltime="906.00">
        <ride waitingTime="0.00" vehicle="-1932_-1932_31_tr" depart="23522.00" arrival="23643.00" arrivalPos="10.10" duration="121.00" routeLength="1635.50" timeLoss="30.98"/>
        <walk depart="23643.00" departPos="10.10" arrival="23949.00" arrivalPos="109.22" duration="306.00" routeLength="349.05" timeLoss="31.73" maxSpeed="1.27" waitingTime="0.00"/>
        <stop duration="26544.00" arrival="50493.00" arrivalPos="109.22" actType="P-Work"/>
        <walk depart="50493.00" departPos="109.22" arrival="50819.00" arrivalPos="12.50" duration="326.00" routeLength="374.17" timeLoss="31.99" maxSpeed="1.27" waitingTime="0.00"/>
        <ride waitingTime="1.00" vehicle="-1932_-1932_31_tr" depart="50820.00" arrival="50973.00" arrivalPos="46.91" duration="153.00" routeLength="2164.65" timeLoss="43.10"/>
        <stop duration="1.00" arrival="50974.00" arrivalPos="25.47" actType="Home"/>
    </personinfo>
    <tripinfo id="-1949_-1903_0_tr" depart="24077.00" departLane="-169307#1_1" departPos="5.10" departPosLat="0.00" departSpeed="0.00" departDelay="0.00" arrival="52001.00" arrivalLane="-169307#1_1" arrivalPos="314.13" arrivalPosLat="0.00" arrivalSpeed="2.48" duration="27924.00" routeLength="7487.62" waitingTime="154.00" waitingCount="6" stopTime="27314.00" timeLoss="237.22" rerouteNo="0" devices="tripinfo_-1949_-1903_0_tr routing_-1949_-1903_0_tr person_-1949_-1903_0_tr" vType="passenger1" speedFactor="1.00" vaporized=""/>
    <personinfo id="-1949_-1903_0" depart="24077.00" type="pedestrian" speedFactor="1.02" duration="27925.00" waitingTime="4.00" timeLoss="301.65" traveltime="1178.00">
        <ride waitingTime="0.00" vehicle="-1949_-1903_0_tr" depart="24077.00" arrival="24337.00" arrivalPos="95.53" duration="260.00" routeLength="3242.68" timeLoss="91.24"/>
        <walk depart="24337.00" departPos="95.53" arrival="24622.00" arrivalPos="90.21" duration="285.00" routeLength="355.53" timeLoss="34.53" maxSpeed="1.42" waitingTime="3.00"/>
        <stop duration="26745.00" arrival="51367.00" arrivalPos="90.21" actType="P-Work"/>
        <walk depart="51367.00" departPos="90.21" arrival="51649.00" arrivalPos="97.83" duration="282.00" routeLength="357.83" timeLoss="29.91" maxSpeed="1.42" waitingTime="0.00"/>
        <ride waitingTime="1.00" vehicle="-1949_-1903_0_tr" depart="51650.00" arrival="52001.00" arrivalPos="314.13" duration="351.00" routeLength="4244.94" timeLoss="145.97"/>
        <stop duration="1.00" arrival="52002.00" arrivalPos="61.04" actType="Home"/>
    </personinfo>
    <tripinfo id="-1919_-1919_45_tr" depart="22237.00" departLane="-167583#2_1" departPos="5.10" departPosLat="0.00" departSpeed="0.00" departDelay="0.00" arrival="52443.00" arrivalLane="-169352#0_1" arrivalPos="157.27" arrivalPosLat="0.00" arrivalSpeed="2.12" duration="30206.00" routeLength="4194.58" waitingTime="140.00" waitingCount="4" stopTime="29778.00" timeLoss="244.68" rerouteNo="0" devices="tripinfo_-1919_-1919_45_tr routing_-1919_-1919_45_tr person_-1919_-1919_45_tr" vType="passenger4" speedFactor="1.24" vaporized=""/>
    <personinfo id="-1919_-1919_45" depart="22237.00" type="pedestrian" speedFactor="1.10" duration="30237.00" waitingTime="58.00" timeLoss="372.26" traveltime="1161.00">
        <ride waitingTime="0.00" vehicle="-1919_-1919_45_tr" depart="22237.00" arrival="22392.00" arrivalPos="10.10" duration="155.00" routeLength="1958.50" timeLoss="73.26"/>
        <walk depart="22392.00" departPos="10.10" arrival="22702.00" arrivalPos="25.07" duration="310.00" routeLength="414.18" timeLoss="37.76" maxSpeed="1.52" waitingTime="6.00"/>
        <stop duration="29074.00" arrival="51776.00" arrivalPos="25.07" actType="P-Work"/>
        <walk depart="51776.00" departPos="25.07" arrival="52168.00" arrivalPos="12.50" duration="392.00" routeLength="463.86" timeLoss="87.11" maxSpeed="1.52" waitingTime="51.00"/>
        <ride waitingTime="1.00" vehicle="-1919_-1919_45_tr" depart="52169.00" arrival="52442.00" arrivalPos="157.27" duration="273.00" routeLength="2236.08" timeLoss="170.49"/>
        <walk depart="52442.00" departPos="107.45" arrival="52473.00" arrivalPos="65.81" duration="31.00" routeLength="41.64" timeLoss="3.63" maxSpeed="1.52" waitingTime="0.00"/>
        <stop duration="1.00" arrival="52474.00" arrivalPos="65.81" actType="Home"/>
    </personinfo>
    <tripinfo id="-1903_-1919_12_tr" depart="26193.00" departLane="-169041#5_1" departPos="5.10" departPosLat="0.00" departSpeed="0.00" departDelay="0.00" arrival="52709.00" arrivalLane="-169041#5_1" arrivalPos="68.38" arrivalPosLat="0.00" arrivalSpeed="2.04" duration="26516.00" routeLength="6127.60" waitingTime="82.00" waitingCount="5" stopTime="25996.00" timeLoss="188.83" rerouteNo="0" devices="tripinfo_-1903_-1919_12_tr routing_-1903_-1919_12_tr person_-1903_-1919_12_tr" vType="passenger2b" speedFactor="0.99" vaporized=""/>
    <personinfo id="-1903_-1919_12" depart="26193.00" type="pedestrian" speedFactor="0.97" duration="26516.00" waitingTime="20.00" timeLoss="288.17" traveltime="1296.00">
        <ride waitingTime="0.00" vehicle="-1903_-1919_12_tr" depart="26193.00" arrival="26419.00" arrivalPos="45.15" duration="226.00" routeLength="2838.87" timeLoss="77.29"/>
        <walk depart="26419.00" departPos="45.15" arrival="26817.00" arrivalPos="110.92" duration="398.00" routeLength="455.96" timeLoss="60.91" maxSpeed="1.35" waitingTime="19.00"/>
        <stop duration="25218.00" arrival="52035.00" arrivalPos="110.92" actType="P-Work"/>
        <walk depart="52035.00" departPos="110.92" arrival="52413.00" arrivalPos="47.35" duration="378.00" routeLength="458.16" timeLoss="39.28" maxSpeed="1.35" waitingTime="0.00"/>
        <ride waitingTime="1.00" vehicle="-1903_-1919_12_tr" depart="52414.00" arrival="52708.00" arrivalPos="68.37" duration="294.00" routeLength="3288.72" timeLoss="110.69"/>
        <stop duration="1.00" arrival="52709.00" arrivalPos="47.65" actType="Home"/>
    </personinfo>
    <tripinfo id="-1903_-1903_0_tr" depart="26537.00" departLane="-169404#6_1" departPos="5.10" departPosLat="0.00" departSpeed="0.00" departDelay="0.00" arrival="52821.00" arrivalLane="-169404#6_1" arrivalPos="227.11" arrivalPosLat="0.00" arrivalSpeed="2.46" duration="26284.00" routeLength="2328.94" waitingTime="41.00" waitingCount="2" stopTime="26026.00" timeLoss="81.91" rerouteNo="0" devices="tripinfo_-1903_-1903_0_tr routing_-1903_-1903_0_tr person_-1903_-1903_0_tr" vType="passenger2a" speedFactor="1.03" vaporized=""/>
    <personinfo id="-1903_-1903_0" depart="26537.00" type="pedestrian" speedFactor="1.16" duration="26284.00" waitingTime="1.00" timeLoss="181.45" traveltime="1259.00">
        <ride waitingTime="0.00" vehicle="-1903_-1903_0_tr" depart="26537.00" arrival="26709.00" arrivalPos="96.03" duration="172.00" routeLength="1458.04" timeLoss="61.65"/>
        <walk depart="26709.00" departPos="96.03" arrival="27205.00" arrivalPos="71.47" duration="496.00" routeLength="716.87" timeLoss="51.51" maxSpeed="1.61" waitingTime="0.00"/>
        <stop duration="25023.00" arrival="52228.00" arrivalPos="71.47" actType="P-Work"/>
        <walk depart="52228.00" departPos="71.47" arrival="52733.00" arrivalPos="97.83" duration="505.00" routeLength="735.71" timeLoss="48.82" maxSpeed="1.61" waitingTime="0.00"/>
        <ride waitingTime="1.00" vehicle="-1903_-1903_0_tr" depart="52734.00" arrival="52820.00" arrivalPos="227.10" duration="86.00" routeLength="870.89" timeLoss="19.47"/>
        <stop duration="1.00" arrival="52821.00" arrivalPos="197.63" actType="Home"/>
    </personinfo>
    <tripinfo id="-1891_-1891_5_tr" depart="21625.00" departLane="-167918_1" departPos="5.10" departPosLat="0.00" departSpeed="0.00" departDelay="0.00" arrival="52962.00" arrivalLane="-167918_1" arrivalPos="124.79" arrivalPosLat="0.00" arrivalSpeed="2.17" duration="31337.00" routeLength="3563.33" waitingTime="7.00" waitingCount="1" stopTime="31095.00" timeLoss="45.08" rerouteNo="0" devices="tripinfo_-1891_-1891_5_tr routing_-1891_-1891_5_tr person_-1891_-1891_5_tr" vType="passenger1" speedFactor="0.94" vaporized=""/>
    <personinfo id="-1891_-1891_5" depart="21625.00" type="pedestrian" speedFactor="0.99" duration="31338.00" waitingTime="1.00" timeLoss="70.14" traveltime="490.00">
        <ride waitingTime="0.00" vehicle="-1891_-1891_5_tr" depart="21625.00" arrival="21746.00" arrivalPos="88.00" duration="121.00" routeLength="1773.94" timeLoss="22.35"/>
        <walk depart="21746.00" departPos="88.00" arrival="21869.00" arrivalPos="48.80" duration="123.00" routeLength="151.48" timeLoss="12.90" maxSpeed="1.38" waitingTime="0.00"/>
        <stop duration="30846.00" arrival="52715.00" arrivalPos="48.80" actType="P-Work"/>
        <walk depart="52715.00" departPos="48.80" arrival="52839.00" arrivalPos="90.40" duration="124.00" routeLength="153.88" timeLoss="12.16" maxSpeed="1.38" waitingTime="0.00"/>
        <ride waitingTime="1.00" vehicle="-1891_-1891_5_tr" depart="52840.00" arrival="52962.00" arrivalPos="124.79" duration="122.00" routeLength="1789.39" timeLoss="22.74"/>
        <stop duration="1.00" arrival="52963.00" arrivalPos="53.24" actType="Home"/>
    </personinfo>
    <tripinfo id="-1903_-1897_3_tr" depart="25544.00" departLane="--169041#5_1" departPos="5.10" departPosLat="0.00" departSpeed="0.00" departDelay="0.00" arrival="53164.00" arrivalLane="-169041#5_1" arrivalPos="68.38" arrivalPosLat="0.00" arrivalSpeed="2.28" duration="27620.00" routeLength="7999.41" waitingTime="58.00" waitingCount="4" stopTime="27009.00" timeLoss="162.13" rerouteNo="0" devices="tripinfo_-1903_-1897_3_tr routing_-1903_-1897_3_tr person_-1903_-1897_3_tr" vType="passenger2b" speedFactor="1.06" vaporized=""/>
    <personinfo id="-1903_-1897_3" depart="25544.00" type="pedestrian" speedFactor="0.93" duration="27629.00" waitingTime="1.00" timeLoss="245.17" traveltime="1456.00">
        <ride waitingTime="0.00" vehicle="-1903_-1897_3_tr" depart="25544.00" arrival="25881.00" arrivalPos="10.20" duration="337.00" routeLength="3884.46" timeLoss="92.59"/>
        <walk depart="25881.00" departPos="10.20" arrival="26304.00" arrivalPos="53.65" duration="423.00" routeLength="491.57" timeLoss="41.20" maxSpeed="1.29" waitingTime="0.00"/>
        <stop duration="26171.00" arrival="52475.00" arrivalPos="53.65" actType="P-Work"/>
        <walk depart="52475.00" departPos="53.65" arrival="52888.00" arrivalPos="12.50" duration="413.00" routeLength="478.23" timeLoss="41.56" maxSpeed="1.29" waitingTime="0.00"/>
        <ride waitingTime="1.00" vehicle="-1903_-1897_3_tr" depart="52889.00" arrival="53163.00" arrivalPos="68.38" duration="274.00" routeLength="4114.95" timeLoss="68.69"/>
        <walk depart="53163.00" departPos="0.00" arrival="53172.00" arrivalPos="10.13" duration="9.00" routeLength="10.13" timeLoss="1.13" maxSpeed="1.29" waitingTime="0.00"/>
        <stop duration="1.00" arrival="53173.00" arrivalPos="10.13" actType="Home"/>
    </personinfo>
    <tripinfo id="-1949_-1919_3_tr" depart="25796.00" departLane="-169270_1" departPos="5.10" departPosLat="0.00" departSpeed="0.00" departDelay="0.00" arrival="53239.00" arrivalLane="-169270_1" arrivalPos="142.39" arrivalPosLat="0.00" arrivalSpeed="2.56" duration="27443.00" routeLength="1439.76" waitingTime="45.00" waitingCount="2" stopTime="27238.00" timeLoss="86.17" rerouteNo="0" devices="tripinfo_-1949_-1919_3_tr routing_-1949_-1919_3_tr person_-1949_-1919_3_tr" vType="passenger4" speedFactor="0.89" vaporized=""/>
    <personinfo id="-1949_-1919_3" depart="25796.00" type="pedestrian" speedFactor="0.92" duration="27444.00" waitingTime="111.00" timeLoss="277.06" traveltime="1099.00">
        <ride waitingTime="0.00" vehicle="-1949_-1919_3_tr" depart="25796.00" arrival="25907.00" arrivalPos="10.20" duration="111.00" routeLength="623.03" timeLoss="61.52"/>
        <walk depart="25907.00" departPos="10.20" arrival="26387.00" arrivalPos="119.30" duration="480.00" routeLength="452.98" timeLoss="127.34" maxSpeed="1.28" waitingTime="86.00"/>
        <stop duration="26343.00" arrival="52730.00" arrivalPos="119.30" actType="P-Work"/>
        <walk depart="52730.00" departPos="119.30" arrival="53143.00" arrivalPos="12.50" duration="413.00" routeLength="448.84" timeLoss="63.55" maxSpeed="1.28" waitingTime="24.00"/>
        <ride waitingTime="1.00" vehicle="-1949_-1919_3_tr" depart="53144.00" arrival="53239.00" arrivalPos="142.39" duration="95.00" routeLength="816.73" timeLoss="24.65"/>
        <stop duration="1.00" arrival="53240.00" arrivalPos="70.30" actType="Home"/>
    </personinfo>
    <tripinfo id="-1949_-1891_0_tr" depart="23197.00" departLane="-169270_1" departPos="5.10" departPosLat="0.00" departSpeed="0.00" departDelay="0.00" arrival="53352.00" arrivalLane="-165437#2_1" arrivalPos="104.03" arrivalPosLat="0.00" arrivalSpeed="2.15" duration="30155.00" routeLength="6002.79" waitingTime="145.00" waitingCount="4" stopTime="29629.00" timeLoss="231.58" rerouteNo="0" devices="tripinfo_-1949_-1891_0_tr routing_-1949_-1891_0_tr person_-1949_-1891_0_tr" vType="passenger4" speedFactor="1.08" vaporized=""/>
    <personinfo id="-1949_-1891_0" depart="23197.00" type="pedestrian" speedFactor="0.94" duration="30170.00" waitingTime="1.00" timeLoss="277.42" traveltime="986.00">
        <ride waitingTime="0.00" vehicle="-1949_-1891_0_tr" depart="23197.00" arrival="23552.00" arrivalPos="10.10" duration="355.00" routeLength="3114.84" timeLoss="195.45"/>
        <walk depart="23552.00" departPos="10.10" arrival="23785.00" arrivalPos="35.02" duration="233.00" routeLength="273.20" timeLoss="24.30" maxSpeed="1.31" waitingTime="0.00"/>
        <stop duration="29182.00" arrival="52967.00" arrivalPos="35.02" actType="P-Work"/>
        <walk depart="52967.00" departPos="35.02" arrival="53179.00" arrivalPos="12.50" duration="212.00" routeLength="250.01" timeLoss="21.01" maxSpeed="1.31" waitingTime="0.00"/>
        <ride waitingTime="1.00" vehicle="-1949_-1891_0_tr" depart="53180.00" arrival="53351.00" arrivalPos="104.00" duration="171.00" routeLength="2887.92" timeLoss="35.22"/>
        <walk depart="53351.00" departPos="142.39" arrival="53366.00" arrivalPos="124.64" duration="15.00" routeLength="17.75" timeLoss="1.44" maxSpeed="1.31" waitingTime="0.00"/>
        <stop duration="1.00" arrival="53367.00" arrivalPos="124.64" actType="Home"/>
    </personinfo>
    <tripinfo id="-1919_-1919_23_tr" depart="25480.00" departLane="-165313#4_1" departPos="5.10" departPosLat="0.00" departSpeed="0.00" departDelay="0.00" arrival="53506.00" arrivalLane="-165313#4_1" arrivalPos="236.31" arrivalPosLat="0.00" arrivalSpeed="2.24" duration="28026.00" routeLength="4248.98" waitingTime="211.00" waitingCount="5" stopTime="27342.00" timeLoss="284.71" rerouteNo="0" devices="tripinfo_-1919_-1919_23_tr routing_-1919_-1919_23_tr person_-1919_-1919_23_tr" vType="passenger2b" speedFactor="0.82" vaporized=""/>
    <personinfo id="-1919_-1919_23" depart="25480.00" type="pedestrian" speedFactor="1.01" duration="28027.00" waitingTime="1.00" timeLoss="326.01" traveltime="1114.00">
        <ride waitingTime="0.00" vehicle="-1919_-1919_23_tr" depart="25480.00" arrival="25842.00" arrivalPos="10.10" duration="362.00" routeLength="1908.92" timeLoss="155.37"/>
        <walk depart="25842.00" departPos="10.10" arrival="26057.00" arrivalPos="108.39" duration="215.00" routeLength="272.72" timeLoss="20.30" maxSpeed="1.40" waitingTime="0.00"/>
        <stop duration="26911.00" arrival="52968.00" arrivalPos="108.39" actType="P-Work"/>
        <walk depart="52968.00" departPos="108.39" arrival="53182.00" arrivalPos="12.50" duration="214.00" routeLength="270.32" timeLoss="21.01" maxSpeed="1.40" waitingTime="0.00"/>
        <ride waitingTime="1.00" vehicle="-1919_-1919_23_tr" depart="53183.00" arrival="53506.00" arrivalPos="236.31" duration="323.00" routeLength="2340.06" timeLoss="129.34"/>
        <stop duration="1.00" arrival="53507.00" arrivalPos="59.68" actType="Home"/>
    </personinfo>
    <tripinfo id="-1949_-1932_0_tr" depart="25392.00" departLane="-169307#1_1" departPos="5.10" departPosLat="0.00" departSpeed="0.00" departDelay="0.00" arrival="53674.00" arrivalLane="-169307#1_1" arrivalPos="314.13" arrivalPosLat="0.00" arrivalSpeed="2.09" duration="28282.00" routeLength="7487.62" waitingTime="193.00" waitingCount="6" stopTime="27634.00" timeLoss="280.93" rerouteNo="0" devices="tripinfo_-1949_-1932_0_tr routing_-1949_-1932_0_tr person_-1949_-1932_0_tr" vType="passenger1" speedFactor="1.02" vaporized=""/>
    <personinfo id="-1949_-1932_0" depart="25392.00" type="pedestrian" speedFactor="0.98" duration="28283.00" waitingTime="1.00" timeLoss="321.42" traveltime="1047.00">
        <ride waitingTime="0.00" vehicle="-1949_-1932_0_tr" depart="25392.00" arrival="25681.00" arrivalPos="95.63" duration="289.00" routeLength="3242.78" timeLoss="122.13"/>
        <walk depart="25681.00" departPos="95.63" arrival="25879.00" arrivalPos="107.78" duration="198.00" routeLength="242.76" timeLoss="20.06" maxSpeed="1.36" waitingTime="0.00"/>
        <stop duration="27234.00" arrival="53113.00" arrivalPos="107.78" actType="P-Work"/>
        <walk depart="53113.00" departPos="107.78" arrival="53313.00" arrivalPos="97.83" duration="200.00" routeLength="244.99" timeLoss="20.43" maxSpeed="1.36" waitingTime="0.00"/>
        <ride waitingTime="1.00" vehicle="-1949_-1932_0_tr" depart="53314.00" arrival="53674.00" arrivalPos="314.13" duration="360.00" routeLength="4244.84" timeLoss="158.79"/>
        <stop duration="1.00" arrival="53675.00" arrivalPos="188.76" actType="Home"/>
    </personinfo>
    <tripinfo id="-1891_-1903_2_tr" depart="24989.00" departLane="-167246#1_1" departPos="5.10" departPosLat="0.00" departSpeed="0.00" departDelay="0.00" arrival="53735.00" arrivalLane="-167246#1_1" arrivalPos="50.24" arrivalPosLat="0.00" arrivalSpeed="1.62" duration="28746.00" routeLength="8223.69" waitingTime="187.00" waitingCount="5" stopTime="27963.00" timeLoss="302.70" rerouteNo="0" devices="tripinfo_-1891_-1903_2_tr routing_-1891_-1903_2_tr person_-1891_-1903_2_tr" vType="passenger4" speedFactor="0.87" vaporized=""/>
    <personinfo id="-1891_-1903_2" depart="24989.00" type="pedestrian" speedFactor="1.21" duration="28746.00" waitingTime="1.00" timeLoss="320.57" traveltime="949.00">
        <ride waitingTime="0.00" vehicle="-1891_-1903_2_tr" depart="24989.00" arrival="25341.00" arrivalPos="10.09" duration="352.00" routeLength="3994.73" timeLoss="121.01"/>
        <walk depart="25341.00" departPos="10.09" arrival="25425.00" arrivalPos="55.88" duration="84.00" routeLength="125.24" timeLoss="9.65" maxSpeed="1.68" waitingTime="0.00"/>
        <stop duration="27795.00" arrival="53220.00" arrivalPos="55.88" actType="P-Work"/>
        <walk depart="53220.00" departPos="55.88" arrival="53302.00" arrivalPos="12.50" duration="82.00" routeLength="122.83" timeLoss="9.08" maxSpeed="1.68" waitingTime="0.00"/>
        <ride waitingTime="1.00" vehicle="-1891_-1903_2_tr" depart="53303.00" arrival="53734.00" arrivalPos="50.21" duration="431.00" routeLength="4228.93" timeLoss="180.82"/>
        <stop duration="1.00" arrival="53735.00" arrivalPos="30.49" actType="Home"/>
    </personinfo>