<?xml version="1.0" encoding="UTF-8"?>

<!-- generated on 2025-08-30 00:02:57 by Eclipse SUMO sumo Version c915cd253
<sumoConfiguration xmlns:xsi="http://www.w3.org/2001/XMLSchema-instance" xsi:noNamespaceSchemaLocation="http://sumo.dlr.de/xsd/sumoConfiguration.xsd">

    <input>
        <net-file value="osm.net.xml"/>
        <route-files value="trips.trips.xml"/>
        <additional-files value="osm_stops.add.xml"/>
    </input>

    <output>
        <vehroute-output value="vehroutes.xml"/>
        <stop-output value="stopinfos.xml"/>
    </output>

    <time>
        <begin value="14400.0"/>
    </time>

    <processing>
        <ignore-route-errors value="true"/>
        <time-to-teleport.disconnected value="0"/>
    </processing>

    <routing>
        <device.rerouting.adaptation-interval value="0"/>
    </routing>

    <report>
        <aggregate-warnings value="5"/>
        <error-log value="trips.trips.xml.errorlog"/>
        <no-step-log value="true"/>
    </report>

</sumoConfiguration>
-->

<routes xmlns:xsi="http://www.w3.org/2001/XMLSchema-instance" xsi:noNamespaceSchemaLocation="http://sumo.dlr.de/xsd/routes_file.xsd">
    <vehicle id="4_tram_T1:0" type="pt_tram" depart="14452.00" departLane="0" arrival="14686.00">
        <route edges="-362613#0 -362613#2 -362613#3 -362613#4 -362613#6 -362613#7 -362613#8 -362613#9 -362613#10"/>
        <stop busStop="-1312169" duration="30.00"/>
        <stop busStop="-1302976" duration="30.00"/>
    </vehicle>

    <vehicle id="1_bus_72:0" type="pt_bus" depart="14415.00" departLane="1" arrival="14728.00">
        <route edges="--361076#10 --364494 -360862#1 -363683#0 -363683#1 -363683#2 -361076#12 -361076#13 -362840#0 -362840#1 -362840#2 -361827#1 -364226#0 --361277#1 --361277#0 --362840#4 --362840#3 --362840#2 --362840#1 --362840#0 --361076#13 --361076#12 --361076#11 --361076#10 --361076#9 --361076#8 --361076#7 --361076#6 --361076#5 --361076#4 --361076#3 --361076#2 --361076#1 --360649#2 --360649#1 --360649#0 -363327 --364054#1 -364734#0 -364734#1 --362270 --361244 -364054#0"/>
        <stop busStop="-1309946" duration="30.00"/>
        <stop busStop="-1310234" duration="30.00"/>
        <stop busStop="-1300217" duration="30.00"/>
    </vehicle>

    <vehicle id="15_bus_L301:0" type="pt_bus" depart="14653.00" departLane="1" arrival="14830.00">
        <route edges="-364054#0 -364054#1 -362482#0 -362482#1 -362482#2 -361693#0 -361693#1 -361693#2 -361693#3 -361693#4 -361693#5 -364669#0 -364669#1 -364669#2 -364669#3 -364669#4 -364669#5 -364669#6 -364669#7"/>
        <stop busStop="-1307753" duration="30.00"/>
        <stop busStop="-1318756" duration="30.00"/>
        <stop busStop="-1301968" duration="30.00"/>
    </vehicle>

    <vehicle id="2_bus_L50:1" type="pt_bus" depart="14415.00" departLane="1" arrival="14831.00">
        <route edges="-363548#2 -363548#4 -363548#5 -363548#6 -363548#7 -363548#8 -363548#10 -363548#11 -363548#12 -363548#13 -363548#14 -363548#15 -363548#17 -363548#18 -363548#19 -363440#0 -363440#1 -363440#2 -363440#3 -363440#4 -363440#5 -363440#7 -363440#8 -363440#9 -363440#10 -363440#11 -363440#12 -363440#13 -363440#14 -361967#0 -361015#0 -361015#1 -361015#2 -361015#3 -361015#4 -362547#0 -362547#1 -362305 -364596"/>
        <stop busStop="-1300954" duration="30.00"/>
        <stop busStop="-1309908" duration="30.00"/>
        <stop busStop="-1297996" duration="30.00"/>
        <stop busStop="-1307541" duration="30.00"/>
        <stop busStop="-1300865" duration="30.00"/>
        <stop busStop="-1312177" duration="30.00"/>
    </vehicle>

    <vehicle id="0_bus_L50:0" type="pt_bus" depart="14403.00" departLane="1" arrival="14882.00">
        <route edges="-361337 -362938#0 -362938#1 -362938#2 -361645#0 -361645#1 -361645#2 -361645#3 -361645#4 -361157 -364302#0 -364302#1 -364302#2 -361298#0 -361298#1 -361298#2 -361012#0 -361012#1 -361591#4 --363440#14 --363440#13 --363440#12 --363440#11 --363440#10 --363440#9 --363440#8 --363440#7 --363440#5 --363440#4 --363440#3 --363440#2 --363440#1 --363440#0 --363548#19 --363548#18 --363548#17 --363548#15 --363548#14 --363548#13 --363548#12 --363548#11 --363548#10 --363548#8 --363548#7 --363548#6 --363548#5 --363548#4 --363548#2"/>
        <stop busStop="-1303456" duration="30.00"/>
        <stop busStop="-1297786" duration="30.00"/>
        <stop busStop="-1299194" duration="30.00"/>
        <stop busStop="-1310571" duration="30.00"/>
        <stop busStop="-1301630" duration="30.00"/>
        <stop busStop="-1306905" duration="30.00"/>
        <stop busStop="-1301325" duration="30.00"/>
    </vehicle>

    <vehicle id="18_bus_L19:0" type="pt_bus" depart="14753.00" departLane="1" arrival="14913.00">
        <route edges="-361076#5 -361076#6 -361076#7 -361076#8 -361076#9 -361076#10 -361076#11 -361076#12 -361076#13 -362840#0 -362840#1 -362840#2"/>
        <stop busStop="-1299777" duration="30.00"/>
        <stop busStop="-1302193" duration="30.00"/>
        <stop busStop="-1303655" duration="30.00"/>
    </vehicle>

    <vehicle id="20_bus_L19:1" type="pt_bus" depart="14783.00" departLane="1" arrival="14944.00">
        <route edges="--362840#2 --362840#1 --362840#0 --361076#13 --361076#12 --361076#11 --361076#10 --361076#9 --361076#8 --361076#7 --361076#6 --361076#5"/>
        <stop busStop="-1310234@-4102" duration="30.00"/>
        <stop busStop="-1312482" duration="30.00"/>
        <stop busStop="-1311578" duration="30.00"/>
    </vehicle>

    <vehicle id="10_bus_BW2:0" type="pt_bus" depart="14532.00" departLane="0" arrival="14965.00">
        <route edges="-364520#6 -364520#7 -364520#8 -364520#9 -364520#11 -364520#12 -364520#13 -364520#14 -364520#15 -364520#16 -364520#17 -364520#20 -364520#21 -364520#23 -362547#0 -362547#1 -364520#28"/>
        <stop busStop="-1318070" duration="30.00"/>
        <stop busStop="-1297565" duration="30.00"/>
        <stop busStop="-1303056" duration="30.00"/>
        <stop busStop="-1316779" duration="30.00"/>
        <stop busStop="-1300165" duration="30.00"/>
    </vehicle>

    <vehicle id="19_tram_T1:1" type="pt_tram" depart="14762.00" departLane="0" arrival="14999.00">
        <route edges="-362354#2 -362354#3 -362354#4 -362354#5 -362354#7 -362354#8 -362354#10"/>
        <stop busStop="-1312010" duration="30.00"/>
        <stop busStop="-1309625" duration="30.00"/>
    </vehicle>

    <vehicle id="7_bus_L143:0" type="pt_bus" depart="14493.00" departLane="1" arrival="15056.00">
        <route edges="-364596 -362970#3 -362970#4 -362970#5 -362970#6 -362970#7 -362970#8 --362941#10 --362941#8 --362941#7 --362941#6 --362941#5 --362941#4 --362941#2 --362941#1 --362941#0 --364379 -364576#1 -364576#2 -364812#0 -361157 -364302#0 -364302#1 -364302#2 -361298#0 -361298#1 -361298#2 -361012#0 -361012#1 -361591#4 --363440#14 --363440#13 --363440#12 --363440#11 --363440#10 --363440#9 --363440#8 --363440#7 --363440#5 --363440#4 --363440#3 --363440#2 --363440#1 --363440#0 --363548#19 --363548#18 --363548#17 --363548#15 --363548#14 --363548#13 --363548#12 --363548#11 --363548#10 --363548#8 --363548#7 --363548#6 --363548#5 --363548#4 --363548#2"/>
        <stop busStop="-1312177" duration="30.00"/>
        <stop busStop="-1313606" duration="30.00"/>
        <stop busStop="-1307804" duration="30.00"/>
        <stop busStop="-1299194" duration="30.00"/>
        <stop busStop="-1301630" duration="30.00"/>
        <stop busStop="-1306905" duration="30.00"/>
        <stop busStop="-1301325" duration="30.00"/>
    </vehicle>

    <vehicle id="5_bus_L13:0" type="pt_bus" depart="14455.00" departLane="1" arrival="15057.00">
        <route edges="-361090#3 -361363#0 -361363#1 -363696#0 -363696#1 -363696#2 -360818#0 -360818#1 -362292#0 -362777#1 -362777#2 -362777#3 -363304#1 -363304#2 -362728#0 -362728#1 -362650#0 -362650#1 -362650#2 -362650#3 -362650#4 -360657#0 -360657#1 -360657#2 -363763#0 -363763#1 -362100#0 -362100#1 -362100#2 -362100#3 -362100#5 -362100#6 -362100#7 -362046#0 -362046#1 -362046#2 -362046#3 -364448#1 -362326#1 -362326#2 -362326#4 -361935#1 -361935#2 -361935#3 -361935#6 -361935#7"/>
        <stop busStop="-1297690" duration="30.00"/>
        <stop busStop="-1308918" duration="30.00"/>
        <stop busStop="-1316081" duration="30.00"/>
        <stop busStop="-1298113" duration="30.00"/>
        <stop busStop="-1299936" duration="30.00"/>
        <stop busStop="-1304523" duration="30.00"/>
    </vehicle>

    <vehicle id="27_bus_L301:1" type="pt_bus" depart="14908.00" departLane="1" arrival="15081.00">
        <route edges="--362026#3 --362026#2 --362026#1 --362026#0 --360649#2 --360649#1 --360649#0 -363327 -361822#0 -361822#1 -361822#2 -361822#3 -361822#4 -361822#5"/>
        <stop busStop="-1308094" duration="30.00"/>
        <stop busStop="-1297882" duration="30.00"/>
        <stop busStop="-1299435" duration="30.00"/>
    </vehicle>

    <vehicle id="23_bus_L63:0" type="pt_bus" depart="14818.00" departLane="1" arrival="15138.00">
        <route edges="--362840#2 --362840#1 --362840#0 --361076#13 --361076#12 --361076#11 --361076#10 --361076#9 --361076#8 --361076#7 --361076#6 --361076#5 --361076#4 --361076#3 --361076#2 --361076#1 --360649#2 --360649#1 --360649#0 -363327 --364054#1 -364734#0 -364734#1 --362270 --361244 -364054#0"/>
        <stop busStop="-1310234@-4102" duration="30.00"/>
        <stop busStop="-1312482" duration="30.00"/>
        <stop busStop="-1311578" duration="30.00"/>
        <stop busStop="-1297882" duration="30.00"/>
        <stop busStop="-1307753" duration="30.00"/>
    </vehicle>

    <vehicle id="14_bus_L9E:0" type="pt_bus" depart="14604.00" departLane="1" arrival="15175.00">
        <route edges="--363878#1 --364084#3 --364084#2 --364084#1 --364084#0 -362820 -362063#0 -362063#1 -362063#2 -360913#0 -360913#1 -360913#2 -361499#0 -361499#1 -361626#1 -361626#2 -362568 -363143 -360993 -360893 -364359#0 -364359#1 -360854#0 -360854#1 -360854#2 --364567#3 --364567#2 --364567#1 --364567#0 --362218#0 --364553 -360594#0 -360594#1 -363957#0 -363957#1 -363957#2 -363957#3 -363957#4 -363957#5 -363045#0 -363045#1 -363045#2 -363045#3 -363045#4 -363045#5 -361165#0 -361165#1 -361165#2 -361337 -362938#0 -362938#1 -362938#2 -361645#0 -361645#1 -361645#2 -361645#3 -361645#4 -364836#5 -364836#6 -364091#1 -364091#2 -364091#3 -364091#4 -364162#1 -364162#2 -364162#4 -364162#5 -364815#0 -364815#1 -364815#2 --363512#3 --363512#2 --363512#1 --363512#0 --363131#4 --363131#3 --363131#2 --363131#1 --363131#0 --363548#19 --363548#18 --363548#17 --363548#15 --363548#14 --363548#13 --363548#12 --363548#11 --363548#10 --363548#8 --363548#7 --363548#6 --363548#5 --363548#4 --363548#2"/>
        <stop busStop="-1303612" duration="30.00"/>
        <stop busStop="-1318136" duration="30.00"/>
        <stop busStop="-1303456" duration="30.00"/>
        <stop busStop="-1303795" duration="30.00"/>
        <stop busStop="-1306905" duration="30.00"/>
        <stop busStop="-1301325" duration="30.00"/>
    </vehicle>

    <vehicle id="25_bus_L84:0" type="pt_bus" depart="14883.00" departLane="1" arrival="15238.00">
        <route edges="-361337 -362938#0 -362938#1 -362938#2 -361645#0 -361645#1 -361645#2 -361645#3 -361645#4 -364836#5 -364836#6 -364091#1 -364091#2 -364091#3 -364091#4 -364162#1 -364162#2 -364162#4 -364162#5 -364815#0 -364815#1 -364815#2 --363512#3 --363512#2 --363512#1 --363512#0 -363131#5 -363131#6 -364377#0 -364377#1 -364377#2 -364377#3 -363327 --364054#1 -364734#0 -364734#1 --362270 --361244 -364054#0 -364054#1 -361822#0 -361822#1 -361822#2 -361822#3 -361822#4 -361822#5"/>
        <stop busStop="-1303456" duration="30.00"/>
        <stop busStop="-1307753" duration="30.00"/>
        <stop busStop="-1299435" duration="30.00"/>
    </vehicle>

    <vehicle id="26_bus_BW2:1" type="pt_bus" depart="14885.00" departLane="0" arrival="15285.00">
        <route edges="-364836#3 -361157 -364302#0 -364302#1 -364302#2 -364836#8 -364836#10 -364836#11 -364836#14 -364836#15 -364836#16 -364836#17 -364836#18 -364836#19 -364836#20 -364836#22 -364836#23 -364836#24 -364836#25"/>
        <stop busStop="-1300867" duration="30.00"/>
        <stop busStop="-1311424" duration="30.00"/>
        <stop busStop="-1307196" duration="30.00"/>
        <stop busStop="-1307150" duration="30.00"/>
        <stop busStop="-1312014" duration="30.00"/>
    </vehicle>

    <vehicle id="29_bus_L63:1" type="pt_bus" depart="14974.00" departLane="1" arrival="15312.00">
        <route edges="-364054#0 -364054#1 -362482#0 -362482#1 -362482#2 -361693#0 -361693#1 -361693#2 -361693#3 -361693#4 -361693#5 -364669#0 -364669#1 -364669#2 -364669#3 -364669#4 -364669#5 -364669#6 -364669#7 -364781#0 -364781#1 -361076#9 -361076#10 -361076#11 -361076#12 -361076#13 -362840#0 -362840#1 -362840#2 -362840#3 -362840#4 -362840#5 -362713#0 -361109"/>
        <stop busStop="-1300374" duration="30.00"/>
        <stop busStop="-1318756" duration="30.00"/>
        <stop busStop="-1301968" duration="30.00"/>
        <stop busStop="-1303655" duration="30.00"/>
        <stop busStop="-1300468" duration="30.00"/>
    </vehicle>

    <vehicle id="22_bus_L97B:1" type="pt_bus" depart="14806.00" departLane="1" arrival="15359.00">
        <route edges="-361090#3 -361363#0 -361363#1 -363696#0 -363696#1 -363696#2 -360818#0 -360818#1 -362292#0 -362777#1 -362777#2 -362777#3 -363304#1 -363304#2 -362728#0 -362728#1 -362650#0 -362650#1 -362650#2 -362650#3 -362650#4 -360657#0 -360657#1 -360657#2 -363763#0 -363763#1 -362100#0 -362100#1 -362100#2 -362100#3 -362100#5 -362100#6 -362100#7 -362046#0 -362046#1 -362046#2 -362046#3 -364448#1 -362326#1 -362326#2 -362326#4 -361935#1 -361935#2 -361935#3 -361935#6 -361935#7"/>
        <stop busStop="-1297690" duration="30.00"/>
        <stop busStop="-1308918" duration="30.00"/>
        <stop busStop="-1316081" duration="30.00"/>
        <stop busStop="-1298113" duration="30.00"/>
        <stop busStop="-1299936" duration="30.00"/>
        <stop busStop="-1304523" duration="30.00"/>
    </vehicle>

    <vehicle id="24_bus_L13:1" type="pt_bus" depart="14841.00" departLane="1" arrival="15384.00">
        <route edges="-363745#3 -363745#4 -363745#5 -363745#6 -363745#7 -363745#10 -363745#11 -363745#12 -360645#0 -360645#1 -364299#4 -364891 -361708#0 -361708#1 -361708#2 -361708#3 -360607#1 -360607#2 -360607#5 -360607#6 -362586#2 -362586#3 -363783 -360614#0 -360614#1 -360614#2 -360614#3 -360614#4 -363356#0 -363356#1 -363356#2 -364818#1 -362242#1 -362242#2 -362242#3 -362592#0 -362592#1 -362592#2 -364015 -361925#0 -361925#1 -361951 -363992#0"/>
        <stop busStop="-1305082" duration="30.00"/>
        <stop busStop="-1307043" duration="30.00"/>
        <stop busStop="-1305225" duration="30.00"/>
        <stop busStop="-1316390" duration="30.00"/>
        <stop busStop="-1316060" duration="30.00"/>
        <stop busStop="-1315879" duration="30.00"/>
    </vehicle>

    <vehicle id="11_tram_T2:0" type="pt_tram" depart="14533.00" departLane="0" arrival="15416.00">
        <route edges="-362320#1 -362320#2 -362320#3 -362320#4 -362320#8 -362320#9 -362320#10 -362320#11 -362320#12 -362320#13 -362320#14 -362320#15 -362320#17 -362320#19 -362320#20 -362320#21 -362320#22 -362320#23 -362320#24 -362320#25 -362320#30 -362320#31 -362320#33 -362320#36 -362320#39 -362320#41 -362320#42 -362320#43 -362320#44 -362320#45 -362320#46 -362320#47 -362320#48 -362320#49 -362320#51 -362320#52 -362320#53 -362320#54"/>
        <stop busStop="-1308448" duration="30.00"/>
        <stop busStop="-1310492" duration="30.00"/>
        <stop busStop="-1314270" duration="30.00"/>
        <stop busStop="-1313253" duration="30.00"/>
        <stop busStop="-1300538" duration="30.00"/>
        <stop busStop="-1314532" duration="30.00"/>
        <stop busStop="-1317699" duration="30.00"/>
        <stop busStop="-1316156" duration="30.00"/>
    </vehicle>

    <vehicle id="8_bus_L109:0" type="pt_bus" depart="14519.00" departLane="1" arrival="15446.00">
        <route edges="-361243 -363745#3 -363745#4 -363745#5 -363745#6 -363745#7 -363745#10 -363745#11 -363745#12 -360645#0 -360645#1 -362465#0 -362465#1 -362465#2 -362465#3 -362465#4 -362465#5 -362465#6 -362465#7 -362465#8 -362465#9 -362465#10 -362465#11 -361015#0 -361015#1 -361015#2 -361015#3 -361015#4 -362547#0 -362547#1 -364131#1 -364131#2 -362941#0 -362941#1 -362941#2 -362941#4 -362941#5 -362941#6 -362941#7 -362941#8 -362941#10 -361847#0 -361847#1 -361847#2 -361847#3 -364544#1 -364544#2 -362218#0 -364567#0 -364567#1 -364567#2 -364567#3 -361441#0 -361441#1 -361441#2 -361441#3 -361441#4 -361449#0 -361449#1 -361449#2 -363195 --361626#2 --361626#1 --361499#1 --361499#0 --360913#2 --360913#1 --360913#0 --362063#2 --362063#1 --362063#0 --362820"/>
        <stop busStop="-1301380" duration="30.00"/>
        <stop busStop="-1305082" duration="30.00"/>
        <stop busStop="-1307043" duration="30.00"/>
        <stop busStop="-1318905" duration="30.00"/>
        <stop busStop="-1307541" duration="30.00"/>
        <stop busStop="-1300865" duration="30.00"/>
        <stop busStop="-1305957" duration="30.00"/>
        <stop busStop="-1315940" duration="30.00"/>
        <stop busStop="-1308978" duration="30.00"/>
        <stop busStop="-1316105" duration="30.00"/>
        <stop busStop="-1307069" duration="30.00"/>
        <stop busStop="-1319104" duration="30.00"/>
    </vehicle>

    <vehicle id="17_tram_T2:1" type="pt_tram" depart="14726.00" departLane="0" arrival="15448.00">
        <route edges="361752#0 362320#53 362320#52 362320#51 362320#49 362320#48 -363987 -361752#7 -361752#8 -361752#9 -361752#10 -361752#11 -361752#12 -361752#13 -361752#15 -361752#18 -361752#21 -361752#23 -361752#24 -361752#30 -361752#31 -361752#32 -361752#33 -361752#34 -361752#35 -361752#37 -361752#39 -361752#40 -361752#41 -361752#42 -361752#43 -361752#44 -361752#45 -361752#46 -361752#47 -361752#50 -361752#51 -361752#52 -361752#53"/>
        <stop busStop="1303933" duration="30.00"/>
        <stop busStop="-1308382" duration="30.00"/>
        <stop busStop="-1315086" duration="30.00"/>
        <stop busStop="-1307748" duration="30.00"/>
        <stop busStop="-1307824" duration="30.00"/>
        <stop busStop="-1303101" duration="30.00"/>
        <stop busStop="-1305161" duration="30.00"/>
        <stop busStop="-1312707" duration="30.00"/>
    </vehicle>

    <vehicle id="13_bus_L143:1" type="pt_bus" depart="14601.00" departLane="1" arrival="15502.00">
        <route edges="--363548#2 -364549 --362222#0 -361827#9 -363548#4 -363548#5 -363548#6 -363548#7 -363548#8 -363548#10 -363248#0 --362061 --363695#7 --363548#12 --363548#11 -363248#0 -363248#1 -363248#2 -363248#3 -363248#4 -363527#0 -363527#1 -363527#2 -363527#3 -363527#4 -363527#5 --363440#5 --363440#4 --363440#3 --363440#2 --363440#1 --363440#0 --363548#19 -363273#0 -363624#0 -363624#1 --361103#0 -363548#18 -363548#19 -363440#0 -363440#1 -363440#2 -363440#3 -363440#4 -363440#5 -363440#7 -363440#8 -363440#9 -363440#10 -363440#11 -363440#12 --362398 -361241#3 -361241#4 -361241#5 --363560#0 --363440#14 --363440#13 --362398 -361241#3 -361241#4 -361241#5 --363560#0 -361967#0 -361015#0 -361015#1 -361015#2 -361015#3 -361015#4 -362547#0 -362547#1 -361157 -364302#0 -362661#0 --363366 --364933#0 -362547#0 -362547#1 -362305 --361497#2 --361497#1 --363472#1 --363472#0 --363889#4 --363889#3 --363889#2 --363889#1 --363889#0 --362941#7 --362941#6 --362941#5 --362941#4 --362941#2 --362941#1 --362941#0 -361284#0 -361284#1 -361284#2 -363631#5 -363631#6 -363631#7 -363631#8 -363631#9 -363631#10 -360594#0 -360594#1 -363957#0 -363957#1 -363957#2 -363957#3 -363957#4 -363957#5 --362941#10 --362025#4 -362599 -363045#2 -363045#3 -363045#4 -363045#5 -361165#0 -361165#1 -361165#2 -361337"/>
        <stop busStop="-1300954@-4088" duration="30.00"/>
        <stop busStop="-1309908@-4088" duration="30.00"/>
        <stop busStop="-1297996@-4088" duration="30.00"/>
        <stop busStop="-1318853" duration="30.00"/>
        <stop busStop="-1307541@-4088" duration="30.00"/>
        <stop busStop="-1305957@-4086" duration="30.00"/>
        <stop busStop="-1315940@-4086" duration="30.00"/>
        <stop busStop="-1303456" duration="30.00"/>
    </vehicle>

    <vehicle id="21_bus_L97B:0" type="pt_bus" depart="14789.00" departLane="1" arrival="15530.00">
        <route edges="-361243 -363745#3 -363745#4 -363745#5 -363745#6 -363745#7 -363745#10 -363745#11 -363745#12 -360645#0 -360645#1 -364299#4 -364891 -361708#0 -361708#1 -361708#2 -361708#3 -360607#1 -360607#2 -360607#5 -360607#6 -362586#2 -362586#3 -363783 -360614#0 -360614#1 -360614#2 -360614#3 -360614#4 -363356#0 -363356#1 -363356#2 -364818#1 -362242#1 -362242#2 -362242#3 -362592#0 -362592#1 -362592#2 -364015 -361925#0 -361925#1 -361951 -363992#0"/>
        <stop busStop="-1301380" duration="30.00"/>
        <stop busStop="-1305082" duration="30.00"/>
        <stop busStop="-1307043" duration="30.00"/>
        <stop busStop="-1305225" duration="30.00"/>
        <stop busStop="-1316390" duration="30.00"/>
        <stop busStop="-1316060" duration="30.00"/>
        <stop busStop="-1315879" duration="30.00"/>
    </vehicle>

    <vehicle id="28_bus_L68:1" type="pt_bus" depart="14935.00" departLane="1" arrival="15780.00">
        <route edges="-363992#0 -363992#2 --363342 --363878#3 --363878#1 --364084#3 --364084#2 --364084#1 --364084#0 -362820 -362063#0 -362063#1 -362063#2 -360913#0 -360913#1 -360913#2 -361499#0 -361499#1 -361626#1 -361626#2 -362568 -363143 -360993 -360893 -364359#0 -364359#1 -360854#0 -360854#1 -360854#2 --364567#3 --364567#2 --364567#1 --364567#0 --362218#0 --364553 -360594#0 -360594#1 -363957#0 -363957#1 -363957#2 -363957#3 -363957#4 -363957#5 --362941#10 --362941#8 --362941#7 --362941#6 --362941#5 --362941#4 --362941#2 --362941#1 --362941#0 --364379 -364576#1 -364576#2 -364812#0 -361157 -364302#0 -364302#1 -364302#2 -361298#0 -361298#1 -361298#2 -361012#0 -361012#1 -364519#0 -364519#1 -364519#2 -360736 -360948#0 -360948#1 -364836#14 -361935#1 -361935#2 -361935#3 -361935#6 -361935#7"/>
        <stop busStop="-1315879" duration="30.00"/>
        <stop busStop="-1303612" duration="30.00"/>
        <stop busStop="-1302544" duration="30.00"/>
        <stop busStop="-1315816" duration="30.00"/>
        <stop busStop="-1317797" duration="30.00"/>
        <stop busStop="-1313606" duration="30.00"/>
        <stop busStop="-1307804" duration="30.00"/>
        <stop busStop="-1297786" duration="30.00"/>
        <stop busStop="-1299194" duration="30.00"/>
        <stop busStop="-1317248" duration="30.00"/>
        <stop busStop="-1299936" duration="30.00"/>
        <stop busStop="-1304523" duration="30.00"/>
    </vehicle>

    <vehicle id="12_bus_L68:0" type="pt_bus" depart="14565.00" departLane="1" arrival="15878.00">
        <route edges="-363745#3 -363745#4 -363745#5 -363745#6 -363745#7 -363745#10 -363745#11 -363745#12 -360645#0 -360645#1 -362465#0 -362465#1 -362465#2 -362465#3 -362465#4 -362465#5 -362465#6 -362465#7 -362465#8 -362465#9 -362465#10 -362465#11 -361015#0 -361015#1 -361015#2 -361015#3 -361015#4 -362547#0 -362547#1 -362305 --361497#2 --361497#1 --363472#1 --363472#0 --363889#4 --363889#3 --363889#2 --363889#1 --363889#0 --362941#7 --362941#6 --362941#5 --362941#4 --362941#2 --362941#1 --362941#0 -361284#0 -361284#1 -361284#2 -363631#5 -363631#6 -363631#7 -363631#8 -363631#9 -363631#10 -360594#0 -360594#1 -363957#0 -363957#1 -363957#2 -363957#3 -363957#4 -363957#5 --362941#10 -364492#0 -364492#2 -364492#4 -364492#5 -364492#6 -364492#7 -364492#9 -364492#10 -363631#10 -364553 -360636#0 -360963 --360716#0 --364646#0 --362218#0 -360636#0 -360963 --360716#0 -364646#1 -364646#2 -361998#0 -361998#1 -361998#2 -361998#4 -361998#5 -363188#0 -363188#1 -363188#2 -361634 -361456#0 -361053#0 -364651#0 -364651#1 -364876 -361721#3 -361626#2 -362568 -363143 -360993 -360893 -363857 -361449#0 -361449#1 -361449#2 -363195 --361626#2 --361626#1 --361499#1 --361499#0 -363699#1 -361981 -361181#0 -361181#1 -361181#2 -361181#3 -362402#0 -360913#0 -360913#1 -360913#2 -363699#1 -361981 -361181#0 -361181#1 -361181#2 -361181#3 -361927#0 -361927#1 -361927#2 -364175#0 --364084#0 -362820 --361957#0 -364175#0 -364084#1 -364084#2 -364084#3 -363878#1 --363672 --360760#3 --363662 --363878#3 --363878#1 --361922#2 --364693 -364693 -361922#2 -363878#1 -363878#3 -363342 -361090#0 -361090#1 -361090#3"/>
        <stop busStop="-1305082" duration="30.00"/>
        <stop busStop="-1307043" duration="30.00"/>
        <stop busStop="-1318905" duration="30.00"/>
        <stop busStop="-1307541" duration="30.00"/>
        <stop busStop="-1300865" duration="30.00"/>
        <stop busStop="-1305957@-4086" duration="30.00"/>
        <stop busStop="-1315940@-4086" duration="30.00"/>
        <stop busStop="-1308978@-4086" duration="30.00"/>
        <stop busStop="-1316105@-4086" duration="30.00"/>
        <stop busStop="-1307069@-4086" duration="30.00"/>
        <stop busStop="-1308890" duration="30.00"/>
        <stop busStop="-1304466" duration="30.00"/>
        <stop busStop="-1297690" duration="30.00"/>
    </vehicle>

</routes>
