<?xml version="1.0" encoding="UTF-8"?>

<!-- generated on 2025-08-27 10:50:06 by Eclipse SUMO sumo Version c915cd253
<sumoConfiguration xmlns:xsi="http://www.w3.org/2001/XMLSchema-instance" xsi:noNamespaceSchemaLocation="http://sumo.dlr.de/xsd/sumoConfiguration.xsd">

    <input>
        <net-file value="osm.net.xml"/>
        <route-files value="trips.trips.xml"/>
        <additional-files value="osm_stops.add.xml"/>
    </input>

    <output>
        <vehroute-output value="vehroutes.xml"/>
        <stop-output value="stopinfos.xml"/>
    </output>

    <time>
        <begin value="14400.0"/>
    </time>

    <processing>
        <ignore-route-errors value="true"/>
        <time-to-teleport.disconnected value="0"/>
    </processing>

    <routing>
        <device.rerouting.adaptation-interval value="0"/>
    </routing>

    <report>
        <aggregate-warnings value="5"/>
        <error-log value="trips.trips.xml.errorlog"/>
        <no-step-log value="true"/>
    </report>

</sumoConfiguration>
-->

<routes xmlns:xsi="http://www.w3.org/2001/XMLSchema-instance" xsi:noNamespaceSchemaLocation="http://sumo.dlr.de/xsd/routes_file.xsd">
    <vehicle id="0_bus_L19:0" type="pt_bus" depart="14403.00" departLane="1" arrival="14563.00">
        <route edges="--167766#2 --167766#1 --167766#0 --166996#13 --166996#12 --166996#11 --166996#10 --166996#9 --166996#8 --166996#7 --166996#6 --166996#5"/>
        <stop busStop="-589560" duration="30.00"/>
        <stop busStop="-591059" duration="30.00"/>
        <stop busStop="-589834" duration="30.00"/>
    </vehicle>

    <vehicle id="5_tram_T1:0" type="pt_tram" depart="14455.00" departLane="0" arrival="14676.00">
        <route edges="-167040#0 -167040#2 -167040#3 -167040#4 -167040#6 -167040#7 -167040#8 -167040#9 -167040#10"/>
        <stop busStop="-589536" duration="30.00"/>
        <stop busStop="-594114" duration="30.00"/>
    </vehicle>

    <vehicle id="8_bus_L301:0" type="pt_bus" depart="14519.00" departLane="1" arrival="14695.00">
        <route edges="--167850#3 --167850#2 --167850#1 --167850#0 --169094#2 --169094#1 --169094#0 -168936 -168618#0 -168618#1 -168618#2 -168618#3 -168618#4 -168618#5"/>
        <stop busStop="-598138" duration="30.00"/>
        <stop busStop="-590741" duration="30.00"/>
        <stop busStop="-586471" duration="30.00"/>
    </vehicle>

    <vehicle id="2_bus_L84:0" type="pt_bus" depart="14415.00" departLane="1" arrival="14757.00">
        <route edges="-169086 -168129#0 -168129#1 -168129#2 -169369#0 -169369#1 -169369#2 -169369#3 -169369#4 -167438#5 -167438#6 -166990#1 -166990#2 -166990#3 -166990#4 -165261#1 -165261#2 -165261#4 -165261#5 -168597#0 -168597#1 -168597#2 --166738#3 --166738#2 --166738#1 --166738#0 -168577#5 -168577#6 -166166#0 -166166#1 -166166#2 -166166#3 -168936 --169316#1 -167940#0 -167940#1 -167940#2 --168826 --168161 -169316#0 -169316#1 -168618#0 -168618#1 -168618#2 -168618#3 -168618#4 -168618#5"/>
        <stop busStop="-585278" duration="30.00"/>
        <stop busStop="-594370" duration="30.00"/>
        <stop busStop="-586471" duration="30.00"/>
    </vehicle>

    <vehicle id="14_bus_L19:1" type="pt_bus" depart="14604.00" departLane="1" arrival="14761.00">
        <route edges="-166996#5 -166996#6 -166996#7 -166996#8 -166996#9 -166996#10 -166996#11 -166996#12 -166996#13 -167766#0 -167766#1 -167766#2"/>
        <stop busStop="-584128" duration="30.00"/>
        <stop busStop="-602285" duration="30.00"/>
        <stop busStop="-598914" duration="30.00"/>
    </vehicle>

    <vehicle id="13_bus_L301:1" type="pt_bus" depart="14601.00" departLane="1" arrival="14777.00">
        <route edges="-169316#0 -169316#1 -169565#0 -169565#1 -169565#2 -169149#0 -169149#1 -169149#2 -169149#3 -169149#4 -169149#5 -168715#0 -168715#1 -168715#2 -168715#3 -168715#4 -168715#5 -168715#6 -168715#7"/>
        <stop busStop="-594370" duration="30.00"/>
        <stop busStop="-594744" duration="30.00"/>
        <stop busStop="-605151" duration="30.00"/>
    </vehicle>

    <vehicle id="6_bus_L50:0" type="pt_bus" depart="14458.00" departLane="1" arrival="14931.00">
        <route edges="-169086 -168129#0 -168129#1 -168129#2 -169369#0 -169369#1 -169369#2 -169369#3 -169369#4 -169108 -167117#0 -167117#1 -167117#2 -166858#0 -166858#1 -166858#2 -169268#0 -169268#1 -168105#4 --166145#14 --166145#13 --166145#12 --166145#11 --166145#10 --166145#9 --166145#8 --166145#7 --166145#5 --166145#4 --166145#3 --166145#2 --166145#1 --166145#0 --167822#19 --167822#18 --167822#17 --167822#15 --167822#14 --167822#13 --167822#12 --167822#11 --167822#10 --167822#8 --167822#7 --167822#6 --167822#5 --167822#4 --167822#2"/>
        <stop busStop="-585278" duration="30.00"/>
        <stop busStop="-603916" duration="30.00"/>
        <stop busStop="-586119" duration="30.00"/>
        <stop busStop="-587588" duration="30.00"/>
        <stop busStop="-589176" duration="30.00"/>
        <stop busStop="-588920" duration="30.00"/>
        <stop busStop="-602470" duration="30.00"/>
    </vehicle>

    <vehicle id="18_tram_T1:1" type="pt_tram" depart="14753.00" departLane="0" arrival="14960.00">
        <route edges="-166039#2 -167866 167040#8 167040#7 167040#6 167040#4 167040#3 -168449 -166039#8 -166039#10"/>
        <stop busStop="-588640" duration="30.00"/>
        <stop busStop="-589368" duration="30.00"/>
    </vehicle>

    <vehicle id="10_bus_BW2:1" type="pt_bus" depart="14532.00" departLane="0" arrival="14962.00">
        <route edges="-167438#3 -169108 -167117#0 -167117#1 -167117#2 -167438#8 -167438#10 -167438#11 -167438#14 -167438#15 -167438#16 -167438#17 -167438#18 -167438#19 -167438#20 -167438#22 -167438#23 -167438#24 -167438#25"/>
        <stop busStop="-594225" duration="30.00"/>
        <stop busStop="-601783" duration="30.00"/>
        <stop busStop="-589628" duration="30.00"/>
        <stop busStop="-585163" duration="30.00"/>
        <stop busStop="-590454" duration="30.00"/>
    </vehicle>

    <vehicle id="7_bus_BW2:0" type="pt_bus" depart="14493.00" departLane="0" arrival="14963.00">
        <route edges="-169039#6 -169039#7 -169039#8 -169039#9 -169039#11 -169039#12 -169039#13 -169039#14 -169039#15 -169039#16 -169039#17 -169039#20 -169039#21 -169039#23 -169298#0 -169298#1 -169039#28"/>
        <stop busStop="-602481" duration="30.00"/>
        <stop busStop="-586550" duration="30.00"/>
        <stop busStop="-591582" duration="30.00"/>
        <stop busStop="-592515" duration="30.00"/>
        <stop busStop="-586352" duration="30.00"/>
    </vehicle>

    <vehicle id="1_bus_L143:0" type="pt_bus" depart="14415.00" departLane="1" arrival="15014.00">
        <route edges="-166687 -168856#3 -168856#4 -168856#5 -168856#6 -168856#7 -168856#8 --166208#10 --166208#8 --166208#7 --166208#6 --166208#5 --166208#4 --166208#2 --166208#1 --166208#0 --169077 -166635#1 -166635#2 -165581#0 -169108 -167117#0 -167117#1 -167117#2 -166858#0 -166858#1 -166858#2 -169268#0 -169268#1 -168105#4 --166145#14 --166145#13 --166145#12 --166145#11 --166145#10 --166145#9 --166145#8 --166145#7 --166145#5 --166145#4 --166145#3 --166145#2 --166145#1 --166145#0 --167822#19 --167822#18 --167822#17 --167822#15 --167822#14 --167822#13 --167822#12 --167822#11 --167822#10 --167822#8 --167822#7 --167822#6 --167822#5 --167822#4 --167822#2"/>
        <stop busStop="-598681" duration="30.00"/>
        <stop busStop="-591318" duration="30.00"/>
        <stop busStop="-598737" duration="30.00"/>
        <stop busStop="-586119" duration="30.00"/>
        <stop busStop="-589176" duration="30.00"/>
        <stop busStop="-588920" duration="30.00"/>
        <stop busStop="-602470" duration="30.00"/>
    </vehicle>

    <vehicle id="4_bus_L97B:0" type="pt_bus" depart="14452.00" departLane="1" arrival="15030.00">
        <route edges="-169290#3 -165886#0 -165886#1 -168917#0 -168917#1 -168917#2 -165704#0 -165704#1 -167539#0 -167345#1 -167345#2 -167345#3 -166279#0 -166279#1 -166279#2 -166736#0 -166736#1 -165728#0 -165728#1 -165728#2 -165728#3 -165728#4 -165361#0 -165361#1 -165361#2 -168587#0 -168587#1 -165489#0 -165489#1 -165489#2 -165489#3 -165489#4 -165489#5 -165489#6 -165489#7 -166386#0 -166386#1 -166386#2 -166386#3 -167827#1 -169172#1 -169172#2 -169172#4 -169110#1 -169110#2 -169110#3 -169110#6"/>
        <stop busStop="-595083" duration="30.00"/>
        <stop busStop="-585428" duration="30.00"/>
        <stop busStop="-600059" duration="30.00"/>
        <stop busStop="-585377" duration="30.00"/>
        <stop busStop="-601815" duration="30.00"/>
        <stop busStop="-593389" duration="30.00"/>
    </vehicle>

    <vehicle id="17_bus_L63:0" type="pt_bus" depart="14726.00" departLane="1" arrival="15035.00">
        <route edges="--167766#2 --167766#1 --167766#0 --166996#13 --166996#12 --166996#11 --166996#10 --166996#9 --166996#8 --166996#7 --166996#6 --166996#5 --166996#4 --166996#3 --166996#2 --166996#1 --169094#2 --169094#1 --169094#0 -168936 --169316#1 -167940#0 -167940#1 -167940#2 --168826 --168161 -169316#0"/>
        <stop busStop="-589560" duration="30.00"/>
        <stop busStop="-591059" duration="30.00"/>
        <stop busStop="-589834" duration="30.00"/>
        <stop busStop="-590741" duration="30.00"/>
        <stop busStop="-594370" duration="30.00"/>
    </vehicle>

    <vehicle id="11_bus_L13:0" type="pt_bus" depart="14533.00" departLane="1" arrival="15130.00">
        <route edges="-169290#3 -165886#0 -165886#1 -168917#0 -168917#1 -168917#2 -165704#0 -165704#1 -167539#0 -167345#1 -167345#2 -167345#3 -166279#0 -166279#1 -166279#2 -166736#0 -166736#1 -165728#0 -165728#1 -165728#2 -165728#3 -165728#4 -165361#0 -165361#1 -165361#2 -168587#0 -168587#1 -165489#0 -165489#1 -165489#2 -165489#3 -165489#4 -165489#5 -165489#6 -165489#7 -166386#0 -166386#1 -166386#2 -166386#3 -167827#1 -169172#1 -169172#2 -169172#4 -169110#1 -169110#2 -169110#3 -169110#6"/>
        <stop busStop="-595083" duration="30.00"/>
        <stop busStop="-585428" duration="30.00"/>
        <stop busStop="-600059" duration="30.00"/>
        <stop busStop="-585377" duration="30.00"/>
        <stop busStop="-601815" duration="30.00"/>
        <stop busStop="-593389" duration="30.00"/>
    </vehicle>

    <vehicle id="21_bus_72:0" type="pt_bus" depart="14830.00" departLane="1" arrival="15130.00">
        <route edges="--166996#10 --168794 -168417#1 -168982#0 -168982#1 -168982#2 -166996#12 -166996#13 -167766#0 -167766#1 -167766#2 -169065#1 -166506#0 --166817#1 --166817#0 --167766#4 --167766#3 --167766#2 --167766#1 --167766#0 --166996#13 --166996#12 --166996#11 --166996#10 --166996#9 --166996#8 --166996#7 --166996#6 --166996#5 --166996#4 --166996#3 --166996#2 --166996#1 --169094#2 --169094#1 --169094#0 -168936 --169316#1 -167940#0 -167940#1 -167940#2 --168826 --168161 -169316#0"/>
        <stop busStop="-590477" duration="30.00"/>
        <stop busStop="-589560@-1934" duration="30.00"/>
        <stop busStop="-599125" duration="30.00"/>
    </vehicle>

    <vehicle id="3_tram_T2:0" type="pt_tram" depart="14417.00" departLane="0" arrival="15184.00">
        <route edges="168349#0 168220#53 168220#52 168220#51 168220#49 168220#48 -167734 -168349#7 -168349#8 -168349#9 -168349#11 -168349#12 -168349#13 -168349#15 -168349#18 -168349#21 -168349#23 -168349#24 -168349#30 -168349#31 -168349#32 -168349#33 -168349#34 -168349#35 -168349#37 -168349#39 -168349#40 -168349#41 -168349#42 -168349#43 -168349#44 -168349#45 -168349#46 -168349#47 -168349#50 -168349#51 -168349#52 -168349#53"/>
        <stop busStop="595326" duration="30.00"/>
        <stop busStop="-588382" duration="30.00"/>
        <stop busStop="-600934" duration="30.00"/>
        <stop busStop="-587380" duration="30.00"/>
        <stop busStop="-591091" duration="30.00"/>
        <stop busStop="-602686" duration="30.00"/>
        <stop busStop="-604427" duration="30.00"/>
        <stop busStop="-586497" duration="30.00"/>
    </vehicle>

    <vehicle id="20_bus_L50:1" type="pt_bus" depart="14783.00" departLane="1" arrival="15198.00">
        <route edges="-167822#2 -167822#4 -167822#5 -167822#6 -167822#7 -167822#8 -167822#10 -167822#11 -167822#12 -167822#13 -167822#14 -167822#15 -167822#17 -167822#18 -167822#19 -166145#0 -166145#1 -166145#2 -166145#3 -166145#4 -166145#5 -166145#7 -166145#8 -166145#9 -166145#10 -166145#11 -166145#12 -166145#13 -166145#14 -168340#0 -165240#0 -165240#1 -165240#2 -165240#3 -165240#4 -169298#0 -169298#1 -165538 -166687"/>
        <stop busStop="-595103@-1930" duration="30.00"/>
        <stop busStop="-594277@-1930" duration="30.00"/>
        <stop busStop="-594324@-1930" duration="30.00"/>
        <stop busStop="-601876@-1930" duration="30.00"/>
        <stop busStop="-586542" duration="30.00"/>
        <stop busStop="-598681" duration="30.00"/>
    </vehicle>

    <vehicle id="15_bus_L9E:0" type="pt_bus" depart="14653.00" departLane="1" arrival="15251.00">
        <route edges="--165368#1 --168927#3 --168927#2 --168927#1 --168927#0 -165646 -167281#0 -167281#1 -167281#2 -168722#0 -168722#1 -168722#2 -167805#0 -167805#1 -167307#1 -167307#2 -165574 -166329 -168579 -166036 -165671#0 -165671#1 -169183#0 -169183#1 -169183#2 --166010#3 --166010#2 --166010#1 --166010#0 --168475#0 --165897 -166750#0 -166750#1 -167276#0 -167276#1 -167276#2 -167276#3 -167276#4 -167276#5 -166211#0 -166211#1 -166211#2 -166211#3 -166211#4 -166211#5 -165293#0 -165293#1 -165293#2 -169086 -168129#0 -168129#1 -168129#2 -169369#0 -169369#1 -169369#2 -169369#3 -169369#4 -167438#5 -167438#6 -166990#1 -166990#2 -166990#3 -166990#4 -165261#1 -165261#2 -165261#4 -165261#5 -168597#0 -168597#1 -168597#2 --166738#3 --166738#2 --166738#1 --166738#0 --168577#4 --168577#3 --168577#2 --168577#1 --168577#0 --167822#19 --167822#18 --167822#17 --167822#15 --167822#14 --167822#13 --167822#12 --167822#11 --167822#10 --167822#8 --167822#7 --167822#6 --167822#5 --167822#4 --167822#2"/>
        <stop busStop="-589551" duration="30.00"/>
        <stop busStop="-588986" duration="30.00"/>
        <stop busStop="-585278" duration="30.00"/>
        <stop busStop="-591476" duration="30.00"/>
        <stop busStop="-588920" duration="30.00"/>
        <stop busStop="-602470" duration="30.00"/>
    </vehicle>

    <vehicle id="28_bus_L63:1" type="pt_bus" depart="14935.00" departLane="1" arrival="15268.00">
        <route edges="-169316#0 -169316#1 -169565#0 -169565#1 -169565#2 -169149#0 -169149#1 -169149#2 -169149#3 -169149#4 -169149#5 -168715#0 -168715#1 -168715#2 -168715#3 -168715#4 -168715#5 -168715#6 -168715#7 -167610#0 -167610#1 -166996#9 -166996#10 -166996#11 -166996#12 -166996#13 -167766#0 -167766#1 -167766#2 -167766#3 -167766#4 -167766#5 -166562#0 -166512"/>
        <stop busStop="-602105" duration="30.00"/>
        <stop busStop="-594744" duration="30.00"/>
        <stop busStop="-605151" duration="30.00"/>
        <stop busStop="-598914" duration="30.00"/>
        <stop busStop="-592117" duration="30.00"/>
    </vehicle>

    <vehicle id="22_bus_L97B:1" type="pt_bus" depart="14806.00" departLane="1" arrival="15381.00">
        <route edges="-167855 -166144#3 -166144#4 -166144#5 -166144#8 -166144#9 -166144#10 -167923#0 -167923#1 -165535#4 -168270 -165825#0 -165825#1 -165825#2 -165825#3 -165589#1 -165589#2 -165589#5 -165589#6 -168230#2 -168230#3 -165346 -168397#0 -168397#1 -168397#2 -168397#5 -167396#0 -167396#1 -167396#2 -168359#1 -169479#1 -169479#2 -169479#3 -166762#0 -166762#1 -166762#2 -165340 -169347#0 -169347#1 -165575 -166246#0"/>
        <stop busStop="-602930" duration="30.00"/>
        <stop busStop="-592734" duration="30.00"/>
        <stop busStop="-604947" duration="30.00"/>
        <stop busStop="-596137" duration="30.00"/>
        <stop busStop="-595747" duration="30.00"/>
        <stop busStop="-590796" duration="30.00"/>
        <stop busStop="-604394" duration="30.00"/>
    </vehicle>

    <vehicle id="12_bus_L68:0" type="pt_bus" depart="14565.00" departLane="1" arrival="15446.00">
        <route edges="-166246#0 -166246#2 --166677 --165368#3 --165368#1 --168927#3 --168927#2 --168927#1 --168927#0 -165646 -167281#0 -167281#1 -167281#2 -168722#0 -168722#1 -168722#2 -167805#0 -167805#1 -167307#1 -167307#2 -165574 -166329 -168579 -166036 -165671#0 -165671#1 -169183#0 -169183#1 -169183#2 --166010#3 --166010#2 --166010#1 --166010#0 --168475#0 --165897 -166750#0 -166750#1 -167276#0 -167276#1 -167276#2 -167276#3 -167276#4 -167276#5 --166208#10 --166208#8 --166208#7 --166208#6 --166208#5 --166208#4 --166208#2 --166208#1 --166208#0 --169077 -166635#1 -166635#2 -165581#0 -169108 -167117#0 -167117#1 -167117#2 -166858#0 -166858#1 -166858#2 -169268#0 -169268#1 -165258#0 -165258#1 -165258#2 -165258#3 -168174 -167071#0 -167071#1 -167438#14 -169110#1 -169110#2 -169110#3 -169110#6"/>
        <stop busStop="-604394" duration="30.00"/>
        <stop busStop="-589551" duration="30.00"/>
        <stop busStop="-601664" duration="30.00"/>
        <stop busStop="-585900" duration="30.00"/>
        <stop busStop="-590411" duration="30.00"/>
        <stop busStop="-591318" duration="30.00"/>
        <stop busStop="-598737" duration="30.00"/>
        <stop busStop="-603916" duration="30.00"/>
        <stop busStop="-586119" duration="30.00"/>
        <stop busStop="-595229" duration="30.00"/>
        <stop busStop="-601815" duration="30.00"/>
        <stop busStop="-593389" duration="30.00"/>
    </vehicle>

    <vehicle id="26_bus_L13:1" type="pt_bus" depart="14952.00" departLane="1" arrival="15531.00">
        <route edges="-166144#3 -166144#4 -166144#5 -166144#8 -166144#9 -166144#10 -167923#0 -167923#1 -165535#4 -168270 -165825#0 -165825#1 -165825#2 -165825#3 -165589#1 -165589#2 -165589#5 -165589#6 -168230#2 -168230#3 -165346 -168397#0 -168397#1 -168397#2 -168397#5 -167396#0 -167396#1 -167396#2 -168359#1 -169479#1 -169479#2 -169479#3 -166762#0 -166762#1 -166762#2 -165340 -169347#0 -169347#1 -165575 -166246#0"/>
        <stop busStop="-592734" duration="30.00"/>
        <stop busStop="-604947" duration="30.00"/>
        <stop busStop="-596137" duration="30.00"/>
        <stop busStop="-595747" duration="30.00"/>
        <stop busStop="-590796" duration="30.00"/>
        <stop busStop="-604394" duration="30.00"/>
    </vehicle>

    <vehicle id="16_bus_L143:1" type="pt_bus" depart="14703.00" departLane="1" arrival="15661.00">
        <route edges="--167822#2 -169215 --166238#0 -169065#9 -167822#4 -167822#5 -167822#6 -167822#7 -167822#8 -167822#10 -165539#0 --168789 --168716#7 --167822#12 --167822#11 -165539#0 -165539#1 -165539#2 -165539#3 -165539#4 -166469#0 -166469#1 -166469#2 -166469#3 -166469#4 -166469#5 --166145#5 --166145#4 --166145#3 --166145#2 --166145#1 --166145#0 --167822#19 -167066#0 -166294#0 -166294#1 --168957#0 -167822#18 -167822#19 -166145#0 -166145#1 -166145#2 -166145#3 -166145#4 -166145#5 -166145#7 -166145#8 -166145#9 -166145#10 -166145#11 -166145#12 --168531 -168656#3 -168656#4 -168656#5 --169547#0 --166145#14 --166145#13 --168531 -168656#3 -168656#4 -168656#5 --169547#0 -168340#0 -165240#0 -165240#1 -165240#2 -165240#3 -165240#4 -169298#0 -169298#1 -169108 -167117#0 -166200#0 --168666 --167097#0 -169298#0 -169298#1 -165538 --168764#2 --168764#1 --165777#1 --165777#0 --165450#4 --165450#3 --165450#2 --165450#1 --165450#0 --166208#7 --166208#6 --166208#5 --166208#4 --166208#2 --166208#1 --166208#0 -167209#0 -167209#1 -167209#2 -165404#5 -165404#6 -165404#7 -165404#8 -165404#9 -165404#10 -166750#0 -166750#1 -167276#0 -167276#1 -167276#2 -167276#3 -167276#4 -167276#5 --166208#10 --168108#4 -168795 -166211#2 -166211#3 -166211#4 -166211#5 -165293#0 -165293#1 -165293#2 -169086"/>
        <stop busStop="-595103" duration="30.00"/>
        <stop busStop="-594277" duration="30.00"/>
        <stop busStop="-594324" duration="30.00"/>
        <stop busStop="-601693" duration="30.00"/>
        <stop busStop="-601876" duration="30.00"/>
        <stop busStop="-585170" duration="30.00"/>
        <stop busStop="-604463" duration="30.00"/>
        <stop busStop="-585278" duration="30.00"/>
    </vehicle>

    <vehicle id="27_tram_T2:1" type="pt_tram" depart="14908.00" departLane="0" arrival="15746.00">
        <route edges="-168220#1 -168220#2 -168220#3 -168220#4 -168220#8 -168220#9 -168220#10 -168220#11 -168220#12 -168220#13 -168220#14 -168220#15 -168220#17 -168220#19 -168220#20 -168220#21 -168220#22 -168220#23 -168220#24 -168220#25 -168220#30 -168220#31 -168220#33 -168220#36 -168220#39 -168220#41 -168220#42 -168220#43 -168220#44 -168220#45 -168220#46 -168220#47 -168220#48 -168220#49 -168220#51 -168220#52 -168220#53 -168220#54"/>
        <stop busStop="-599418" duration="30.00"/>
        <stop busStop="-598263" duration="30.00"/>
        <stop busStop="-594132" duration="30.00"/>
        <stop busStop="-587418" duration="30.00"/>
        <stop busStop="-600567" duration="30.00"/>
        <stop busStop="-605131" duration="30.00"/>
        <stop busStop="-589519" duration="30.00"/>
        <stop busStop="-587557" duration="30.00"/>
    </vehicle>

    <vehicle id="24_bus_L109:0" type="pt_bus" depart="14841.00" departLane="1" arrival="15814.00">
        <route edges="-167855 -166144#3 -166144#4 -166144#5 -166144#8 -166144#9 -166144#10 -167923#0 -167923#1 -166267#0 -166267#1 -166267#2 -166267#3 -166267#4 -166267#5 -166267#6 -166267#7 -166267#8 -166267#9 -166267#10 -166267#11 -165240#0 -165240#1 -165240#2 -165240#3 -165240#4 -169298#0 -169298#1 -167698#1 -167698#2 -166208#0 -166208#1 -166208#2 -166208#4 -166208#5 -166208#6 -166208#7 -166208#8 -166208#10 -168363#0 -168363#1 -168363#2 -168363#3 -169133#1 -169133#2 -168475#0 -166010#0 -166010#1 -166010#2 -166010#3 -167646#0 -167646#1 -167646#2 -167646#3 -167646#4 -167176#0 -167176#1 -167176#2 -169322 --167307#2 --167307#1 --167805#1 --167805#0 --168722#2 --168722#1 --168722#0 --167281#2 --167281#1 --167281#0 --165646"/>
        <stop busStop="-602930" duration="30.00"/>
        <stop busStop="-592734" duration="30.00"/>
        <stop busStop="-604947" duration="30.00"/>
        <stop busStop="-603868" duration="30.00"/>
        <stop busStop="-601876@-1930" duration="30.00"/>
        <stop busStop="-586542" duration="30.00"/>
        <stop busStop="-585170@-1942" duration="30.00"/>
        <stop busStop="-604463@-1942" duration="30.00"/>
        <stop busStop="-584202" duration="30.00"/>
        <stop busStop="-596941" duration="30.00"/>
        <stop busStop="-584189" duration="30.00"/>
        <stop busStop="-593570" duration="30.00"/>
    </vehicle>

    <vehicle id="25_bus_L68:1" type="pt_bus" depart="14883.00" departLane="1" arrival="16287.00">
        <route edges="-166144#3 -166144#4 -166144#5 -166144#8 -166144#9 -166144#10 -167923#0 -167923#1 -166267#0 -166267#1 -166267#2 -166267#3 -166267#4 -166267#5 -166267#6 -166267#7 -166267#8 -166267#9 -166267#10 -166267#11 -165240#0 -165240#1 -165240#2 -165240#3 -165240#4 -169298#0 -169298#1 -169108 -167117#0 -166200#0 --168666 --167097#0 -169298#0 -169298#1 -165538 --168764#2 --168764#1 --165777#1 --165777#0 --165450#4 --165450#3 --165450#2 --165450#1 --165450#0 --166208#7 --166208#6 --166208#5 --166208#4 --166208#2 --166208#1 --166208#0 -167209#0 -167209#1 -167209#2 -165404#5 -165404#6 -165404#7 -165404#8 -165404#9 -165404#10 -166750#0 -166750#1 -167276#0 -167276#1 -167276#2 -167276#3 -167276#4 -167276#5 --166208#10 -168559#0 -168559#2 -168559#4 -168559#5 -168559#6 -168559#7 -168559#9 -168559#10 -165404#10 -165897 -167767#0 -165232 --166985#0 --165265#0 --168475#0 -167767#0 -165232 --166985#0 -165265#1 -165265#2 -165891#0 -165891#1 -165891#2 -165891#4 -165891#5 -168109#0 -168109#1 -168109#2 -169386 -166820#0 -168435#0 -167300#0 -167300#1 -165808 -168020#3 -167307#2 -165574 -166329 -168579 -166036 -167846 -167176#0 -167176#1 -167176#2 -169322 --167307#2 --167307#1 --167805#1 --167805#0 -165714#1 -168350 -165601#0 -165601#1 -165601#2 -165601#3 -168259#0 -168722#0 -168722#1 -168722#2 -165714#1 -168350 -165601#0 -165601#1 -165601#2 -165601#3 -166488#0 -166488#1 -166488#2 -165896#0 --168927#0 -165646 --169372#0 -165896#0 -168927#1 -168927#2 -168927#3 -165368#1 --168853 --167809#3 --167979 --165368#3 --165368#1 --167353#2 --166517 -166517 -167353#2 -165368#1 -165368#3 -166677 -169290#0 -169290#1 -169290#3"/>
        <stop busStop="-592734" duration="30.00"/>
        <stop busStop="-604947" duration="30.00"/>
        <stop busStop="-603868" duration="30.00"/>
        <stop busStop="-601876" duration="30.00"/>
        <stop busStop="-586542" duration="30.00"/>
        <stop busStop="-585170" duration="30.00"/>
        <stop busStop="-604463" duration="30.00"/>
        <stop busStop="-584202@-1943" duration="30.00"/>
        <stop busStop="-596941@-1943" duration="30.00"/>
        <stop busStop="-584189@-1943" duration="30.00"/>
        <stop busStop="-589132" duration="30.00"/>
        <stop busStop="-600776" duration="30.00"/>
        <stop busStop="-595083" duration="30.00"/>
    </vehicle>

</routes>
